mp_id,formula,sites,composition,a_edge (angstrom),b_edge (angstrom),c_edge (angstrom),alpha_ang (deg),beta_ang (deg),gamma_ang (deg),crystal_system,space_group,total_magnetisation (bohr),energy_per_atom (eV/atom),formation_energy (eV/atom),energy_above_hull (eV/atom),stable,density (g/cc),band_gap (eV),direct_bandgap,volume (cubic-angstrom),bulk_modulus (GPa),shear_modulus (GPa)
mp-11008,BaPSe3,20,Ba1 P1 Se3,7.1099389637402926,8.00824586,10.443696043411796,90.0,90.94345990664823,90.0,mono,P2_1/c,0.0,-4.858490397499999,-1.294053817834819,0.0,True,4.526466315493323,2.1651,False,594.5640041838495,,
mp-8557,BaPaO3,5,Ba1 Pa1 O3,4.49381653,4.49385515,4.49383447,90.0,90.0,90.0,cubic,Pm-3m,1.0003132,-8.825384121999999,-3.563953094999999,0.0,True,7.618469715769435,0.0,False,90.75101233528245,"{'voigt': 109.369, 'reuss': 109.369, 'vrh': 109.369}","{'voigt': 45.463, 'reuss': 37.69, 'vrh': 41.577}"
mp-20461,BaPbO3,10,Ba1 Pb1 O3,6.150366445526722,6.150366445526722,6.131107946330908,60.23374128386826,60.23374128386826,89.75035476716985,mono,C2/m,0.000113899999999,-6.203899323,-2.108798317999999,5.1835000000721734e-05,False,7.8771808510208565,0.19340000000000002,False,165.49154870311418,,
mp-20991,BaPbO3,10,Ba1 Pb1 O3,6.038435832170003,6.038435663106539,6.103859858786258,119.6460644934506,119.64606249333933,89.99999956913906,tet,I4/mcm,1e-07,-6.203213393000001,-2.1081123880000012,0.0007377649999990001,False,8.196469151276947,0.027299999999999002,False,159.04492951661564,,
mp-21280,BaPbO3,5,Ba1 Pb1 O3,4.362221,4.362221,4.362221,90.0,90.0,90.0,cubic,Pm-3m,0.0002,-6.176932494,-2.081831488999999,0.027018664,False,7.852241508861981,0.0,False,83.00858149731611,,
mp-22230,BaPbO3,10,Ba1 Pb1 O3,6.076817497730201,6.076817497730201,6.076817497730201,120.17971671024007,119.3208593585377,90.434657871265,ortho,Imma,0.0,-6.203951158000001,-2.108850153,0.0,True,8.185414704735301,0.199299999999999,False,159.25972054852807,,
mp-561598,BaPbO3,5,Ba1 Pb1 O3,4.670138,4.670138,4.670138,90.0,90.0,90.0,cubic,Pm-3m,2.96e-05,-5.108779098,-1.013678092999999,1.09517206,False,6.399226750646413,0.0,False,101.85659215140905,"{'voigt': 61.735, 'reuss': 61.735, 'vrh': 61.735}","{'voigt': 21.07, 'reuss': 14.328, 'vrh': 17.699}"
mp-1178510,BaPdO3,5,Ba1 Pd1 O3,4.128267,4.128267,4.128267,90.0,90.0,90.0,cubic,Pm-3m,0.2599993,-6.073839014,-1.685291061,0.028700658499995,False,6.885721971520744,0.0,False,70.35635538244601,,
mp-22705,BaPrO3,20,Ba1 Pr1 O3,6.410451,6.496936,9.107009,90.0,90.0,90.0,ortho,Pnma,4.0013552,-7.286583334499999,-2.974917451833333,0.10705341450000001,False,5.712994943388242,0.0,False,379.2913507547934,,
mp-4783,BaPrO3,5,Ba1 Pr1 O3,4.590467999999999,4.590467999999999,4.590467999999999,90.0,90.0,90.0,cubic,Pm-3m,0.9999794999999991,-7.202808638,-2.891142755333334,0.19082811099999902,False,5.600230400246306,0.0,False,96.732161628463,,
mp-6909,BaPrO3,10,Ba1 Pr1 O3,6.453867261856104,6.453867261856104,6.453867261856104,120.25321867712951,119.90537238695886,89.86297550106231,ortho,Imma,2.0037388,-7.281422177,-2.969756294333334,0.11221457199999901,False,5.706750605022721,0.0,False,189.85318606930812,,
mp-6910,BaPrO3,10,Ba1 Pr1 O3,6.409892021514013,6.4098919180081335,6.409892021514013,60.85499792454792,60.85500082092324,60.85499792454792,trig,R-3c,2.0000121,-7.275488559999999,-2.963822677333333,0.11814818900000001,False,5.707910908447886,0.0,False,189.81459273707014,,
mp-1183290,BaPtO3,5,Ba1 Pt1 O3,4.138181,4.138181,4.138181,90.0,90.0,90.0,cubic,Pm-3m,0.0006986,-6.279181574,-1.712383318999999,0.099315742266672,False,8.913980135863296,0.0,False,70.864454291593,,
mp-1214788,BaPtO3,70,Ba1 Pt1 O3,5.865786269192648,5.865786269192648,34.996411,90.0,90.0,120.0000030361901,hex_,P6_3/mmc,6.670000000000001e-05,-6.373782275142857,-1.8069840201428562,0.0047150411238150005,False,8.480501764111574,0.41589999999999905,False,1042.8133825691384,,
mp-505025,BaPuO3,20,Ba1 Pu1 O3,6.21830855,6.22055537,8.74807929,90.0,90.0,90.0,ortho,Pnma,15.9999996,-9.644219981999992,-3.34406189474999,0.0,True,8.427161774996334,0.0,False,338.38736500399904,,
mp-7143,BaPuO3,5,Ba1 Pu1 O3,4.38110308,4.3811021,4.38110112,90.0,90.0,90.0,cubic,Pm-3m,4.0,-9.619879698,-3.319721610749997,0.024340283999991,False,8.47784271870357,0.0,False,84.09111734321918,"{'voigt': 118.683, 'reuss': 118.683, 'vrh': 118.683}","{'voigt': 57.141, 'reuss': 55.318, 'vrh': 56.229}"
mp-989637,BaReN3,20,Ba1 Re1 N3,7.989707038656219,7.989707038656219,6.143923284700713,81.54328597889554,81.54328597889554,91.19638265346143,mono,C2/c,0.0,-8.574175465000016,-0.6977909885000171,0.0,True,6.33372480850784,1.7855,False,383.35537609112504,,
mp-1183298,BaReO3,5,Ba1 Re1 O3,4.064732,4.064732,4.064732,90.0,90.0,90.0,cubic,Pm-3m,0.0077775,-8.21331388,-2.3711194475,0.13636216450000802,False,9.186494240340954,0.0,False,67.15769002397445,,
mp-1016850,BaRhO3,5,Ba1 Rh1 O3,4.094455,4.094455,4.094455,90.0,90.0,90.0,cubic,Pm-3m,1.5496788000000001,-6.739862990000001,-1.914429825,0.098336171296295,False,6.9727007498380615,0.0,False,68.64174366791524,"{'voigt': 134.066, 'reuss': 134.066, 'vrh': 134.066}","{'voigt': 57.897, 'reuss': 50.105, 'vrh': 54.001}"
mp-7685,BaRhO3,20,Ba1 Rh1 O3,5.771510517665904,5.771510397044206,9.654164460001445,89.99994841005932,90.00004596156519,119.99995595132786,hex_,P6_3/mmc,4.018215599999999,-6.8227054355,-1.997272270499999,0.015493725796296001,False,6.874242273661015,0.0,False,278.4995456894578,,
mp-1017591,BaRuO3,5,Ba1 Ru1 O3,4.063668,4.063668,4.063668,90.0,90.0,90.0,cubic,Pm-3m,2.0165364,-7.328901740000001,-2.121449641,0.06870543149999901,False,7.08696316067908,0.0,False,67.1049654561984,,
mp-3597,BaRuO3,20,Ba1 Ru1 O3,5.781548755853015,5.781549010756973,9.632656140000085,90.00001575412584,89.99998765382269,119.99995872783352,hex_,P6_3/mmc,8.0185275,-7.397607171500001,-2.1901550725,0.0,True,6.821965990747581,0.0,False,278.8465487700886,"{'voigt': -179661081.468, 'reuss': 1033.073, 'vrh': -89830024.198}","{'voigt': -107796435.041, 'reuss': 296.021, 'vrh': -53898069.51}"
mp-3598,BaRuO3,30,Ba1 Ru1 O3,5.7985239233967985,5.7985239233967985,14.252885,90.0,90.0,119.9999991259798,hex_,P6_3/mmc,7.3465312,-7.371691194333334,-2.164239095333334,0.025915977166667003,False,6.875396671955308,0.0,False,415.01932828972775,,
mp-5773,BaRuO3,15,Ba1 Ru1 O3,7.936573849556186,7.93765484416488,7.933601299560217,42.71376995738064,43.05868620201609,42.71305534087293,trig,R-3m,2.0479731,-7.395671109333334,-2.188219010333334,0.0019360621666670002,False,6.817437184487096,0.0,False,209.27383936981565,,
mp-768307,BaSO3,10,Ba1 S1 O3,5.572643,4.716658,6.797828427639595,73.2134574960817,90.0,90.0,mono,P2_1/m,0.0003059,-6.779983659,-2.599740154499999,0.06942532750000001,False,4.220516074236972,4.4264,False,171.06198078454176,,
mp-18291,BaSbTe3,40,Ba1 Sb1 Te3,4.68859283,17.3106177,18.2360371,90.0,90.0,90.0,ortho,P2_12_12_1,0.0,-4.136793026999999,-1.041214254999998,0.0,True,5.761188872469049,0.620699999999999,False,1480.0812310614283,,
mp-1183289,BaScO3,5,Ba1 Sc1 O3,4.219697,4.219697,4.219697,90.0,90.0,90.0,cubic,Pm-3m,0.9995877,-7.826176444,-3.207111031999999,0.026701069166656002,False,5.089365179865764,0.0,False,75.13526132667413,,
mp-6989,BaSeO3,10,Ba1 Se1 O3,4.727316926583802,5.68404761,6.881633588802252,90.0,107.07620243479843,90.0,mono,P2_1/m,0.0,-6.369833005999999,-2.318079119468748,0.0,True,4.96556488626975,3.886599999999999,True,176.75970785828287,,
mp-1070137,BaSi3Pd,5,Ba1 Si3 Pd1,4.43020383,4.43020383,6.001889522094713,111.6581144542038,111.6581144542038,90.0,tet,I4mm,0.0,-5.111159912,-0.43619774399999905,0.0,True,5.420660922176265,0.0,False,100.47900681322531,,
mp-1069809,BaSi3Pt,5,Ba1 Si3 Pt1,5.949318943965418,5.949318943965418,5.949318943965418,136.22566386937575,136.22566386937575,63.631647671740964,tet,I4mm,0.0,-5.4062291380000005,-0.553016668,0.0020814485000010003,False,6.956361148010638,0.0,False,99.46186616984674,,
mp-1016821,BaSiO3,5,Ba1 Si1 O3,3.836937,3.836937,3.836937,90.0,90.0,90.0,cubic,Pm-3m,0.0005857,-7.280380138,-2.842744940999999,0.561268264999999,False,6.273519937114947,0.9473,False,56.48771473314591,"{'voigt': 175.849, 'reuss': 175.849, 'vrh': 175.849}","{'voigt': 144.663, 'reuss': 98.273, 'vrh': 121.468}"
mp-12958,BaSiO3,15,Ba1 Si1 O3,7.479290826271967,7.479290826271967,7.479290994249455,44.14675395601789,44.14675395601789,44.14674750377367,trig,R-3m,0.0006018,-7.546947386666668,-3.1093121896666682,0.294701016333331,False,5.765227565391804,3.0454,False,184.40389415384814,,
mp-18407,BaSiO3,30,Ba1 Si1 O3,5.518273593796705,5.518273593796705,13.280251,90.0,90.0,119.99999512996347,hex_,P6_3/mmc,0.0002028,-7.433081184000001,-2.995445987000001,0.40856721899999904,False,6.071180489088911,2.1249000000000002,True,350.22197599033973,,
mp-7339,BaSiO3,20,Ba1 Si1 O3,4.638022,5.691674,12.707909,90.0,90.0,90.0,ortho,P2_12_12_1,0.000371199999999,-7.819616552499999,-3.3819813555,0.022031850500000002,False,4.22550248405267,4.5344999999999995,False,335.46476985200644,"{'voigt': 58.494, 'reuss': 57.494, 'vrh': 57.994}","{'voigt': 31.934, 'reuss': 30.002, 'vrh': 30.968}"
mp-776076,BaSiO3,40,Ba1 Si1 O3,6.398849,7.928865,14.354105297548887,62.05222586236981,90.0,90.0,mono,P2_1/c,0.00040879999999900006,-7.80272853875,-3.365093341749999,0.038919864249999006,False,4.406777069787621,4.9408,False,643.3305773691544,,
mp-776084,BaSiO3,30,Ba1 Si1 O3,7.519856188475781,7.519856188475781,11.386928401678137,71.2648748075211,71.2648748075211,60.145712287455176,mono,C2/c,0.0,-7.841648403,-3.404013206000001,0.0,True,4.100241203264657,4.6708,False,518.5696943364608,,
mp-1068048,BaSn3Au,5,Ba1 Sn3 Au1,6.6538717962131315,6.6538717962131315,6.6538717962131315,135.20719748340136,135.20719748340136,65.20843136305719,tet,I4mm,0.0,-3.946880615999998,-0.502566114999997,0.0,True,7.955701718580122,0.0,False,144.1073772472349,,
mp-11269,BaSn3Pd,5,Ba1 Sn3 Pd1,4.936751667106215,4.936751817042512,6.628744193915609,111.86213095804081,111.86212816271157,90.00001054218387,tet,I4mm,0.0,-4.4724092480000035,-0.6468947850000021,0.0,True,7.253140734671712,0.0,False,137.33625612600136,"{'voigt': 55.013, 'reuss': 54.998, 'vrh': 55.006}","{'voigt': 23.57, 'reuss': 23.253, 'vrh': 23.411}"
mp-30433,BaSn3Pt,5,Ba1 Sn3 Pt1,4.9336489626699125,4.933649025396896,6.608819910555205,111.9708301332073,111.97083750147871,89.97635849838123,tet,I4mm,0.0,-4.6849495840000035,-0.681184819000002,0.0,True,8.375358179643245,0.0,False,136.51347261001945,"{'voigt': 60.954, 'reuss': 60.884, 'vrh': 60.919}","{'voigt': 26.842, 'reuss': 26.701, 'vrh': 26.771}"
mp-1178513,BaSnO3,10,Ba1 Sn1 O3,5.923234727220086,5.923234727220086,5.923234727220086,120.00541407842886,119.85501992637683,90.12095949472122,ortho,Imma,3.54e-05,-6.7413082110000015,-2.586822249000001,0.0006460229999960001,False,6.864126368631641,0.665099999999999,True,147.10169950504223,,
mp-3163,BaSnO3,5,Ba1 Sn1 O3,4.14346542,4.14346542,4.14346542,90.0,90.0,90.0,cubic,Pm-3m,0.0,-6.741954234,-2.587468271999999,0.0,True,7.097114448493584,0.372399999999999,False,71.13628093297905,"{'voigt': 133.913, 'reuss': 133.913, 'vrh': 133.913}","{'voigt': 89.124, 'reuss': 89.059, 'vrh': 89.091}"
mp-1183370,BaSnS3,20,Ba1 Sn1 S3,3.96018971,8.60846534,14.69781739,90.0,90.0,90.0,ortho,Pnma,0.0,-5.062951831499999,-1.394226731999997,0.015674842611113002,False,4.669209108430439,0.8569,False,501.06558342019883,,
mp-1214332,BaSrBi3,20,Ba1 Sr1 Bi3,6.84803675,7.01213743,15.74091666,90.0,90.0,90.0,ortho,Pnna,9e-07,-3.794816241499995,-0.738515049499997,0.0,True,7.48591980577048,0.0,False,755.8689770548289,,
mp-754678,BaTaO3,5,Ba1 Ta1 O3,4.130846,4.130846,4.130846,90.0,90.0,90.0,cubic,Pm-3m,0.0012411,-8.995048194,-3.269091094466667,0.03255764930669,False,8.628535380730046,0.0,False,70.48829628052674,"{'voigt': 177.458, 'reuss': 177.458, 'vrh': 177.458}","{'voigt': 96.778, 'reuss': 91.247, 'vrh': 94.012}"
mp-4001,BaTaS3,10,Ba1 Ta1 S3,6.94578854,6.94578883862555,5.70673887,90.0,90.0,119.9999935422262,hex_,P6_3/mmc,2e-07,-7.022248309,-1.782052071966665,0.0,True,5.773115876741495,0.0,False,238.4304913891586,,
mp-1078588,BaTaSe3,10,Ba1 Ta1 Se3,7.278414499471228,7.278414499471228,5.925888,90.0,90.0,120.0000045401028,hex_,P6_3/mmc,0.00046419999999900005,-6.417136058999999,-1.562408675872915,0.040600375999998,False,6.781654100770416,0.0,False,271.8677044141515,,
mp-1182811,BaTbO3,10,Ba1 Tb1 O3,10.613900698332776,8.700594201223616,6.178271379572849,133.58695814694158,148.2087823101583,35.92366690313853,tri,P-1,1.999972399999999,-7.389091397,-3.108947081333333,0.10617699875000002,False,6.483026653012643,0.0,False,176.3501887526242,,
mp-20129,BaTbO3,20,Ba1 Tb1 O3,6.25741,6.323942,8.801637,90.0,90.0,90.0,ortho,Pnma,4.0015935,-7.404464976,-3.124320660333333,0.090803419749999,False,6.565046223874112,0.0,False,348.29396015201496,,
mp-2929,BaTbO3,5,Ba1 Tb1 O3,4.451637,4.451637,4.451637,90.0,90.0,90.0,cubic,Pm-3m,0.9997735,-7.374825732,-3.094681416333332,0.12044266375000001,False,6.479843395744582,0.0,False,88.21841085680292,,
mp-2939,BaTbO3,10,Ba1 Tb1 O3,6.28436239876473,6.28436239876473,6.28436239876473,120.57980093531596,120.57980093531596,88.99865509136674,tet,I4/mcm,2.0056567,-7.397871111000001,-3.117726795333334,0.09739728474999901,False,6.573244495993126,0.0,False,173.9297807413048,,
mp-548824,BaTbO3,10,Ba1 Tb1 O3,6.232303063501646,6.232303063501646,6.232303438634707,60.97275541678469,60.97275541678469,60.972753656695225,trig,R-3c,1.9982508,-7.402091136,-3.121946820333333,0.093177259749999,False,6.535941394736451,0.0,False,174.9224640948871,,
mp-5735,BaTbO3,10,Ba1 Tb1 O3,6.2728042949849785,6.2728042949849785,6.2728042949849785,120.41192330668498,119.6225449364656,89.97151235288803,ortho,Imma,1.995254699999999,-7.403501586,-3.123357270333334,0.09176680975000001,False,6.55273342641514,0.0,False,174.47420786847704,,
mp-555174,BaTcO3,30,Ba1 Tc1 O3,5.798878580000956,5.798878602138829,13.951183650001354,89.999956849759,90.00004412848651,119.99994660410563,hex_,P6_3/mmc,2.0395058,-7.891064421333338,-2.4663650413333382,0.0,True,6.947932625573583,0.0,False,406.2842187794692,,
mp-5431,BaTeO3,10,Ba1 Te1 O3,4.650439182225438,5.95910517,7.120932753304553,90.0,106.44706128590025,90.0,mono,P2_1/m,0.0,-6.338290204000003,-2.357057434333336,0.0,True,5.49100834768368,2.7149,False,189.26378785886058,"{'voigt': 44.353, 'reuss': 41.702, 'vrh': 43.028}","{'voigt': 22.835, 'reuss': 17.465, 'vrh': 20.15}"
mp-556021,BaTeO3,60,Ba1 Te1 O3,6.15247695,12.37206862,14.88472134,90.0,90.0,90.0,ortho,Pnma,7e-07,-6.328950654333334,-2.347717884666667,0.009339549666671,False,5.503485898689368,3.256199999999999,True,1133.0081241360817,,
mp-27499,BaTeS3,20,Ba1 Te1 S3,6.98612374,7.56500176,11.07567138,90.0,90.0,90.0,ortho,Pnma,0.0,-4.684428414500002,-1.1889565073333341,0.0,True,4.097770834982159,1.9088,False,585.3496576133798,,
mp-1189614,BaThO3,20,Ba1 Th1 O3,6.3660955,6.4142298,9.00638526,90.0,90.0,90.0,ortho,Pnma,0.0,-8.610439181999999,-3.7750959409999982,0.0,True,7.537982410796209,4.047,True,367.7631283410378,,
mp-8037,BaThO3,5,Ba1 Th1 O3,4.600115,4.600115,4.600115,90.0,90.0,90.0,cubic,Pm-3m,0.0,-8.527033092,-3.691689850999999,0.083406089999998,False,7.119627087536885,3.2033,True,97.34330038250651,"{'voigt': 110.875, 'reuss': 110.875, 'vrh': 110.875}","{'voigt': 52.758, 'reuss': 48.49, 'vrh': 50.624}"
mp-1076932,BaTiO3,5,Ba1 Ti1 O3,3.7644019743849086,3.7644019743849086,8.881493,90.0,90.0,90.21449599834355,ortho,Amm2,0.0139247,-7.444891613999999,-2.513221619666666,0.9790563579999991,False,3.076721579460935,0.0,False,125.85628830095348,,
mp-19990,BaTiO3,5,Ba1 Ti1 O3,4.112467,4.112467,5.035613,90.0,90.0,90.0,tet,P4/mmm,0.0770356,-6.616488108,-1.684818113666666,1.807459863999998,False,4.546800709110376,0.0,False,85.16422489125648,"{'voigt': 92.254, 'reuss': 92.212, 'vrh': 92.233}","{'voigt': 11.398, 'reuss': -10.425, 'vrh': 0.487}"
mp-2998,BaTiO3,10,Ba1 Ti1 O3,5.666408035279349,5.6664076443956235,5.668373884507181,119.98853562968743,119.9885368451857,90.00000405170599,cubic,Pm-3m,0.0,-8.409168392,-3.477498397666666,0.014779579999999001,False,6.015663613577288,1.666299999999999,False,128.738833485449,"{'voigt': 166.907, 'reuss': 166.907, 'vrh': 166.907}","{'voigt': 107.497, 'reuss': 105.25, 'vrh': 106.373}"
mp-5020,BaTiO3,5,Ba1 Ti1 O3,4.033806554507884,4.033805892924775,4.033806146413204,89.83638279997638,89.8363695774206,89.83638729523724,trig,R3m,0.0,-8.423906982,-3.492236987666666,4.0989999998686244e-05,False,5.89961040436988,2.5086999999999993,False,65.6356490658401,,
mp-504715,BaTiO3,5,Ba1 Ti1 O3,4.649145,4.649145,4.649145,90.0,90.0,90.0,cubic,Pm-3m,0.3616125,-5.346455884,-0.414785889666666,3.077492087999998,False,3.8533977810600533,0.0,False,100.48917348467371,"{'voigt': 54.646, 'reuss': 54.646, 'vrh': 54.646}","{'voigt': 4.816, 'reuss': 1.480999999999999, 'vrh': 3.148}"
mp-558125,BaTiO3,30,Ba1 Ti1 O3,5.752887432769777,5.752887432769777,14.01903216,90.0,90.0,119.7247725689259,ortho,C222_1,0.0,-8.422651141666666,-3.490981147333332,0.0012968303333320001,False,5.76628573211291,2.0811,True,402.91942798108107,"{'voigt': 104.423, 'reuss': 100.654, 'vrh': 102.538}","{'voigt': 59.933, 'reuss': 47.33, 'vrh': 53.631}"
mp-5777,BaTiO3,5,Ba1 Ti1 O3,3.98333387,4.0573426446750185,4.0573423579991434,90.25451681616497,90.0,90.0,ortho,Amm2,0.0,-8.423947971999999,-3.492277977666666,0.0,True,5.905237274567591,2.2929999999999993,False,65.57310741671338,"{'voigt': 107.356, 'reuss': 88.377, 'vrh': 97.867}","{'voigt': 66.471, 'reuss': 36.084, 'vrh': 51.278}"
mp-5933,BaTiO3,30,Ba1 Ti1 O3,5.745668325795204,5.745668381775962,13.99927295000006,89.99999183487697,89.99999814502478,120.0000581926578,hex_,P6_3/mmc,0.0,-8.421328529999998,-3.4896585356666643,0.002619442,False,5.804935524770896,1.726099999999999,True,400.2367535081449,,
mp-5986,BaTiO3,5,Ba1 Ti1 O3,3.99037921,3.99037921,4.10265539,90.0,90.0,90.0,tet,P4mm,0.0,-8.421991397999998,-3.490321403666664,0.001956574000001,False,5.927475120567493,1.727999999999999,False,65.32709969254628,,
mp-644497,BaTiO3,5,Ba1 Ti1 O3,5.555776618099939,5.555776618099939,3.78421,90.0,90.0,107.26414679637466,ortho,Amm2,0.0,-7.709675374,-2.778005379666666,0.7142725979999991,False,3.471516277603287,0.3567,True,111.54340845946945,"{'voigt': 32.37, 'reuss': 12.355, 'vrh': 22.363}","{'voigt': 39.381, 'reuss': 8.33, 'vrh': 23.855}"
mp-995191,BaTiO3,5,Ba1 Ti1 O3,4.120883055355976,4.120883055355976,5.032511,90.0,90.0,90.40670806176456,ortho,Amm2,0.2176743,-6.617292430000001,-1.6856224356666671,1.8066555419999981,False,4.531153196471881,0.0,False,85.45832403722468,,
mp-7073,BaTiS3,10,Ba1 Ti1 S3,6.80284049,6.802839688822481,5.85429888,90.0,90.0,120.00000384720843,hex_,P6_3/mmc,2e-07,-6.390798784000002,-1.9448896521666672,0.006230596999996001,False,3.9829071196417702,0.0,False,234.63134508320312,,
mp-1079893,BaTiSe3,10,Ba1 Ti1 Se3,7.108258999411648,7.108258999411648,6.05122586,90.0,90.0,119.99999999452398,hex_,P6_3/mmc,0.001179,-5.830655040999998,-1.770214763072915,0.0,True,5.293796120745721,0.0,False,264.7893307600213,,
mp-1227345,BaTl3Au,5,Ba1 Tl3 Au1,5.062475,5.062475,7.208156014449327,69.44153996805281,69.44153996805281,90.0,tet,I4mm,0.0002098,-2.787968186,-0.32651352800000405,0.013759600333332001,False,9.811795858101934,0.0,False,160.3444381051228,,
mp-1227390,BaTlIn3,5,Ba1 Tl1 In3,5.132796,5.132796,7.142914544767493,68.94321859306152,68.94321859306152,90.0,tet,I-4m2,0.0006190999999990001,-2.8205625640000003,-0.30696890666666704,0.012278902500000001,False,7.029838181820949,0.0,False,162.08091805053485,,
mp-1183393,BaTlO3,5,Ba1 Tl1 O3,4.350242,4.350242,4.350242,90.0,90.0,90.0,cubic,Pm-3m,0.0001515,-5.525285378,-1.698419363666668,0.119237046250003,False,7.860473804643862,0.0,False,82.32661349927436,,
mp-1183394,BaTmO3,5,Ba1 Tm1 O3,4.374127,4.374127,4.374127,90.0,90.0,90.0,cubic,Pm-3m,0.998569399999999,-7.442776868,-3.193704981000002,0.07260766408333301,False,7.02904506046517,0.0,False,83.69011508040276,,