mp_id,formula,sites,composition,a_edge (angstrom),b_edge (angstrom),c_edge (angstrom),alpha_ang (deg),beta_ang (deg),gamma_ang (deg),crystal_system,space_group,total_magnetisation (bohr),energy_per_atom (eV/atom),formation_energy (eV/atom),energy_above_hull (eV/atom),stable,density (g/cc),band_gap (eV),direct_bandgap,volume (cubic-angstrom),bulk_modulus (GPa),shear_modulus (GPa)
mp-1186404,PaOsO3,5,Pa1 Os1 O3,3.960572,3.960572,3.960572,90.0,90.0,90.0,cubic,Pm-3m,0.007580799999999,-8.775239868,-1.6521303429999992,1.164462956000001,False,12.542747261475235,0.0,False,62.12604951273307,,
mp-1186401,PaSiO3,5,Pa1 Si1 O3,3.820904,3.820904,3.820904,90.0,90.0,90.0,cubic,Pm-3m,2.434966,-8.354445896,-2.391746251,1.00367619016667,False,9.14235801045292,0.0,False,55.782551954834126,,
mp-1186403,PaTaO3,5,Pa1 Ta1 O3,4.037848,4.037848,4.037848,90.0,90.0,90.0,cubic,Pm-3m,2.3953054,-9.864889588,-2.613868040466667,0.7367426743200001,False,11.602190651338695,0.0,False,65.83394786941436,,
mp-862832,PaTlO3,5,Pa1 Tl1 O3,4.37641728,4.37641728,4.37641728,90.0,90.0,90.0,cubic,Pm-3m,0.0,-8.519211286000004,-3.167280823666671,0.0,True,9.576684616602673,2.6427,False,83.82164361680597,"{'voigt': 133.398, 'reuss': 133.398, 'vrh': 133.398}","{'voigt': 61.272, 'reuss': 53.429, 'vrh': 57.351}"
mp-982245,PbAuO3,5,Pb1 Au1 O3,4.148796,4.148796,4.148796,90.0,90.0,90.0,cubic,Pm-3m,0.0006575,-4.969002936,-0.6029205189999991,0.329485498333337,False,10.514280914279322,0.0,False,71.41118537597386,"{'voigt': 132.88, 'reuss': 132.88, 'vrh': 132.88}","{'voigt': 53.214, 'reuss': 44.721, 'vrh': 48.968}"
mp-1105697,PbCO3,20,Pb1 C1 O3,8.565431,5.260156,6.2813313876429895,89.91828869785971,90.0,90.0,mono,P2_1/c,0.0005198,-7.364302346,-1.807263230499999,0.0019628935,False,6.271347965135263,3.3642,False,283.00825906007117,,
mp-19893,PbCO3,20,Pb1 C1 O3,5.18693591,6.06501914,8.542956910000001,90.0,90.0,90.0,ortho,Pnma,0.0,-7.366265239500001,-1.809226124,0.0,True,6.604025394102395,3.3293,True,268.75173301996114,"{'voigt': 43.484, 'reuss': 103.729, 'vrh': 73.607}","{'voigt': 31.059, 'reuss': 29.669, 'vrh': 30.364}"
mp-20507,PbSO3,20,Pb1 S1 O3,5.570302,6.907102,8.054018,90.0,90.0,90.0,ortho,Pnma,0.0013287,-6.2557454225,-1.716767491999999,0.081017958124997,False,6.15746392260508,3.6415,False,309.8754760026049,,
mp-21190,PbSO3,10,Pb1 S1 O3,5.407462,4.565639,6.50796169978965,73.44685590952031,90.0,90.0,mono,P2_1/m,0.00038859999999900005,-6.254194124,-1.715216193499999,0.082569256624998,False,6.19443377816386,3.2251,True,154.01303269333644,,
mp-20716,PbSeO3,10,Pb1 Se1 O3,4.543913328780324,5.53663,6.590420841613455,90.0,106.6598799428971,90.0,mono,P2_1/m,0.0,-5.866225149000002,-1.455736836468751,0.0008378754999990001,False,6.986607973794549,2.8909000000000002,False,158.8418149711553,"{'voigt': 36.614, 'reuss': 34.113, 'vrh': 35.364}","{'voigt': 17.701, 'reuss': -3.2, 'vrh': 7.251}"
mp-630329,PbSeO3,40,Pb1 Se1 O3,8.07301543,8.848565589491715,9.189320976230896,76.60234518526825,90.0,90.0,mono,P2_1/c,0.0,-5.867063024500001,-1.45657471196875,0.0,True,6.951557214292642,3.367199999999999,False,638.5708737419326,,
mp-21031,Pd3PbC,5,Pd3 Pb1 C1,4.298945,4.298945,4.298945,90.0,90.0,90.0,cubic,Pm-3m,6.13e-05,-5.501883096,0.1943085025,0.43425457250000005,False,11.254481917802194,0.0,False,79.44849350684825,,
mp-545482,PdSeO3,10,Pd1 Se1 O3,3.915402921159764,6.170011594518883,6.445083638069268,90.00388517282403,90.00382256048111,96.54886134839612,mono,P2_1/m,0.0,-5.736829246,-1.032893985468749,0.0,True,5.0106199066219,1.0589,False,154.68489951937246,"{'voigt': 18.536, 'reuss': 17.395, 'vrh': 17.966}","{'voigt': 13.425, 'reuss': 10.02, 'vrh': 11.723}"
mp-546684,PdSeO3,10,Pd1 Se1 O3,4.94391529548585,4.943776336062079,7.046745114773886,109.4413761907087,109.4478236612116,90.67431603720765,mono,C2/m,0.0,-5.732160562000001,-1.02822530146875,0.004668683999999,False,5.109730520104486,0.8236000000000001,True,151.68456217720995,,
mp-1186533,PmBeO3,5,Pm1 Be1 O3,3.638462,3.638462,3.638462,90.0,90.0,90.0,cubic,Pm-3m,0.9998513,-7.552489681999999,-2.8857220415000002,0.273470728249999,False,6.964168280987622,0.0,False,48.16743617261043,,
mp-1186557,PmErO3,5,Pm1 Er1 O3,4.266351,4.266351,4.266351,90.0,90.0,90.0,cubic,Pm-3m,7.64e-05,-8.14394997,-3.311521140499999,0.63507635675,False,7.703569739272002,1.695799999999999,True,77.65505796283766,,
mp-1186571,PmEuO3,5,Pm1 Eu1 O3,4.446997,4.446997,4.446997,90.0,90.0,90.0,cubic,Pm-3m,7.1550432,-8.818842669999999,-2.8423352195000002,0.7983015077500001,False,6.513585180689889,0.0,False,87.94284464083904,,
mp-1186597,PmInO3,5,Pm1 In1 O3,4.14608,4.14608,4.14608,90.0,90.0,90.0,cubic,Pm-3m,5.9100000000000014e-05,-6.906561624,-2.435841807833333,0.47924233475000005,False,7.17178954663811,1.6185,False,71.27102965144373,,
mp-1186600,PmMgO3,5,Pm1 Mg1 O3,3.85676416,3.85677751,3.85680204,90.0,90.0,90.0,cubic,Pm-3m,0.998285499999999,-7.065885797999999,-2.820906727499999,0.31246738925,False,6.289848752025451,0.0,False,57.368701080609554,,
mp-1232288,PmMgS3,10,Pm1 Mg1 S3,6.9757348457778985,6.9757348457778985,6.807285376495464,74.35313054511445,74.35313054511445,110.6185613741457,mono,C2/m,1.9999953,-5.29014272,-1.530924511999999,0.37949691550000003,False,3.229728073255958,0.2109,False,273.0094374402526,,
mp-1232152,PmMgSe3,20,Pm1 Mg1 Se3,8.552830981279882,12.059555,8.038909516727813,90.0,138.03847291854223,90.0,mono,C2/m,0.0011218,-4.7886948835,-1.414945529406249,0.33619709399999703,False,4.866400605566892,0.0,False,554.4024139692456,,
mp-1232203,PmMgSe3,30,Pm1 Mg1 Se3,7.000498,7.00049877323759,19.625022,90.0,90.0,119.99999634618992,trig,R-3,3.2346265,-4.847646200666667,-1.473896846572916,0.277245776833329,False,4.858760693908766,0.0,False,832.9112338615447,,
mp-1237948,PmMgSe3,10,Pm1 Mg1 Se3,7.361748927247452,7.361748927247452,6.83844874945254,76.32880960292171,76.32880960292171,116.40606697619135,mono,C2/m,0.0001753,-4.7539764,-1.3802270459062491,0.37091557749999704,False,4.546946605377535,0.0,False,296.67648173797636,,
mp-983513,PmRuO3,5,Pm1 Ru1 O3,3.963814,3.963814,3.963814,90.0,90.0,90.0,cubic,Pm-3m,0.6657485,-7.959914948,-2.186149372499999,0.387848930499997,False,7.840745527194333,0.0,False,62.278737736241204,,
mp-2647018,PmTiO3,5,Pm1 Ti1 O3,3.9201020689585366,3.920489043387572,3.9201620542290083,90.00944235042829,89.98357129054197,90.01410430661889,cubic,Pm-3m,4.83e-05,-8.958279804,-3.460296333166667,0.109473932750001,False,6.63867720604334,0.0,False,60.24785691045861,,
mp-1186669,PmWO3,5,Pm1 W1 O3,4.1273,4.1273,4.1273,90.0,90.0,90.0,cubic,Pm-3m,2.9679798,-8.78951494,-2.2790038265,0.555546558499994,False,8.90032582576115,0.0,False,70.30692641341699,,
mp-10039,Pr3AlC,5,Pr3 Al1 C1,5.137283,5.137283,5.137283,90.0,90.0,90.0,cubic,Pm-3m,0.0084294,-5.609920974,-0.13778983449999901,0.058784596222222006,False,5.654872105865764,0.0,False,135.58151165215526,"{'voigt': 61.702, 'reuss': 61.702, 'vrh': 61.702}","{'voigt': 40.827, 'reuss': 40.77, 'vrh': 40.798}"
mp-1094072,Pr3AlN,5,Pr3 Al1 N1,5.0424066,5.0424066,5.0424066,90.0,90.0,90.0,cubic,Pm-3m,0.0035175,-21.660386586,-0.8458429647499991,0.0,True,6.005968977447023,0.0,False,128.20754605647855,,
mp-20684,Pr3AlN,5,Pr3 Al1 N1,5.587362,5.587362,5.587362,90.0,90.0,90.0,cubic,Pm-3m,0.0062381,-19.799117794,1.015425827250001,1.8612687920000002,False,4.414446347963168,0.0,False,174.4296982214099,,
mp-8368,Pr3GaC,5,Pr3 Ga1 C1,5.537393,5.537393,5.537393,90.0,90.0,90.0,cubic,Pm-3m,0.0005476,-4.103016892,1.225618286,1.499269545222222,False,4.933520156043145,0.0,False,169.79153793566402,"{'voigt': 36.668, 'reuss': 36.668, 'vrh': 36.668}","{'voigt': 19.693, 'reuss': 7.953, 'vrh': 13.823}"
mp-19749,Pr3InC,5,Pr3 In1 C1,5.831276,5.831276,5.831276,90.0,90.0,90.0,cubic,Pm-3m,0.0013576,-3.694238562,1.580612160166666,1.827949422333333,False,4.602214126400706,0.0,False,198.28542498807576,,
mp-20990,Pr3InN,5,Pr3 In1 N1,5.07883424,5.07883424,5.07883424,90.0,90.0,90.0,cubic,Pm-3m,0.0010523,-24.983197102,-0.9993550707499961,0.0,True,6.991011548457405,0.0,False,131.00628050292852,,
mp-21135,Pr3InO,5,Pr3 In1 O1,5.01386593,5.01386074,5.01386074,90.0,90.0,90.0,cubic,Pm-3m,8.9e-06,-5.929620027999999,-1.510910203333332,0.0,True,7.2925787925634165,0.0,False,126.04257043499666,,
mp-20388,Pr3PbC,5,Pr3 Pb1 C1,5.930013,5.930013,5.930013,90.0,90.0,90.0,cubic,Pm-3m,0.024383,-3.896917308,1.5686280795000012,1.887780893111109,False,5.111781748748781,0.0,False,208.52922843410647,,
mp-20543,Pr3SnC,5,Pr3 Sn1 C1,5.88102718,5.88102718,5.8810346,90.0,90.0,90.0,cubic,Pm-3m,0.6493709,-4.102736700000003,1.422193644499997,1.825235301777775,False,4.518168243193966,0.0,False,203.4042896412885,,
mp-1206822,Pr3SnN,5,Pr3 Sn1 N1,5.0504593700000004,5.05046559,5.05046559,90.0,90.0,90.0,cubic,Pm-3m,3.63e-05,-6.330217394000002,-0.9833645990000011,0.0,True,7.159657733317907,0.0,False,128.8230907563521,,
mp-7166,Pr3TlC,5,Pr3 Tl1 C1,5.871802,5.871802,5.871802,90.0,90.0,90.0,cubic,Pm-3m,2.8e-06,-3.5959975220000002,1.601312874833332,1.810166216111112,False,5.242219788296817,0.0,False,202.44833419051386,,
mp-1219803,PrAl3Ag,5,Pr1 Al3 Ag1,4.305298047748553,4.305298047746469,6.325608987922759,70.1394548937088,70.13946474763648,90.03529006494314,tet,I4mm,0.0,-4.185117418000002,-0.410090092666667,0.0,True,5.324966167279082,0.0,False,102.82013017900812,,
mp-1069825,PrAl3Cu,5,Pr1 Al3 Cu1,6.0972268827658525,6.0972268827658525,6.0972268827658525,139.33091001096017,139.33091001096017,58.870639673186965,tet,I4mm,0.0,-12.601272708,-0.5118632363333331,0.0,True,4.970010433727597,0.0,False,95.35492454597241,,
mp-3466,PrAlO3,10,Pr1 Al1 O3,5.313161820726251,5.313161677877332,5.313160872805752,60.43271449927931,60.432711127754146,60.43272143704275,trig,R-3c,0.0,-8.332834386999995,-3.655848326333328,0.0,True,6.694744446690226,4.1325,False,107.09578105965994,,
mp-8218,PrAlO3,10,Pr1 Al1 O3,5.3159359526770285,5.315939820456506,5.315951879087984,59.99999237994646,59.99991843664029,60.00005233914645,cubic,Pm-3m,0.0,-8.314810974,-3.637824913333332,0.018023412999994,False,6.74964059796787,2.8792,False,106.22475005987332,"{'voigt': 197.512, 'reuss': 197.512, 'vrh': 197.512}","{'voigt': 138.511, 'reuss': 134.33, 'vrh': 136.42}"
mp-861504,PrBO3,20,Pr1 B1 O3,5.07421834,5.77535461,8.16741715,90.0,90.0,90.0,ortho,Pnma,0.0,-8.710246637500001,-3.446497388666666,0.0,True,5.542315602904406,4.6526,True,239.34951052552847,,
mp-2976,PrBPd3,5,Pr1 B1 Pd3,4.397572,4.397572,4.397572,90.0,90.0,90.0,cubic,Pm-3m,3.83e-05,-5.939519366,-0.5366176341666651,0.11091275293333301,False,9.196264244095067,0.0,False,85.0430595621153,"{'voigt': 131.577, 'reuss': 131.577, 'vrh': 131.577}","{'voigt': 6.8469999999999995, 'reuss': -37.373, 'vrh': -15.263}"
mp-11596,PrBPt3,5,Pr1 B1 Pt3,4.03625293,4.03625293,5.10236568,90.0,90.0,90.0,tet,P4mm,0.0,-6.784278455999998,-0.846625818166663,0.0,True,14.722140650111541,0.0,False,83.12436243796674,,
mp-5200,PrBRh3,5,Pr1 B1 Rh3,4.24621053,4.24624226,4.24620336,90.0,90.0,90.0,cubic,Pm-3m,0.0179892,-7.381872871999997,-0.6683155041666621,0.0,True,9.986435174993757,0.0,False,76.56090895431151,"{'voigt': 169.867, 'reuss': 169.867, 'vrh': 169.867}","{'voigt': 75.46, 'reuss': 71.375, 'vrh': 73.418}"
mp-862754,PrBS3,20,Pr1 B1 S3,7.66742708,6.02901654,8.97746712,90.0,90.0,90.0,ortho,Pna2_1,0.0,-6.328215389,-1.5502270026666651,0.0,True,3.96788955659386,2.4441,True,415.0017737104433,"{'voigt': 53.701, 'reuss': 51.763, 'vrh': 52.732}","{'voigt': 25.183, 'reuss': 20.031, 'vrh': 22.607}"
mp-1186742,PrBeO3,5,Pr1 Be1 O3,3.680409,3.680409,3.680409,90.0,90.0,90.0,cubic,Pm-3m,0.9998085,-7.528997214,-2.853243746333333,0.252533759374999,False,6.592440355136668,0.0,False,49.85265037165066,,
mp-976727,PrBiO3,5,Pr1 Bi1 O3,4.448834,4.448834,4.448834,90.0,90.0,90.0,cubic,Pm-3m,0.0001415,-6.625798072,-1.919920315333334,0.765578476875,False,7.503595689079901,0.0,False,88.05187400348734,"{'voigt': 114.926, 'reuss': 114.926, 'vrh': 114.926}","{'voigt': 38.397, 'reuss': 8.345, 'vrh': 23.371}"
mp-13125,PrCoGe3,5,Pr1 Co1 Ge3,5.787387693818644,5.787387693818644,5.787387693818644,136.29539469976237,136.29539469976237,63.52397955623566,tet,I4mm,7.5999999999999975e-06,-5.721135751999999,-0.561541403333332,0.0,True,7.595181890643827,0.0,False,91.33529829915938,,
mp-20090,PrCoO3,20,Pr1 Co1 O3,5.40230677,5.34896231,7.59490712,90.0,90.0,90.0,ortho,Pnma,2e-07,-7.8519722079999426,-2.497417969333276,0.0,True,7.500799709937002,0.0,False,219.46802067311398,,
mp-20427,PrCoO3,5,Pr1 Co1 O3,3.818819,3.818819,3.818819,90.0,90.0,90.0,cubic,Pm-3m,1.735199199999999,-7.73563128,-2.381077041333333,0.116340927999886,False,7.389781550642455,0.0,False,55.69128310911385,,
mp-569153,PrCoSb3,40,Pr1 Co1 Sb3,6.212405,12.170227,12.855429,90.0,90.0,90.0,ortho,Pbcm,0.0016713,-24.591651366916658,-0.640224429249991,0.009924975750003001,False,7.72387786690688,0.0,False,971.9524380292138,,
mp-13007,PrCrGe3,10,Pr1 Cr1 Ge3,6.183807289750547,6.183807289750547,5.757806,90.0,90.0,119.99999240116577,hex_,P6_3/mmc,2.7388655,-17.618082891666663,-0.39943659199999704,0.034544734999997,False,7.155418655935946,0.0,False,190.67756036781603,,
mp-1105822,PrCrO3,20,Pr1 Cr1 O3,5.4670064400000005,5.52184358,7.7524912,90.0,90.0,90.0,ortho,Pnma,12.0000002,-8.980136609499999,-3.121656220833332,0.0,True,6.837139433917559,2.0419,True,234.03185092916053,,
mp-19353,PrCrO3,5,Pr1 Cr1 O3,3.886788,3.886788,3.886788,90.0,90.0,90.0,cubic,Pm-3m,3.00005,-8.86211335,-3.003632961333333,0.118023259499999,False,6.812662166642102,1.847,False,58.71817644999847,,
mp-1209589,PrCrSb3,20,Pr1 Cr1 Sb3,6.27080792,6.20440328,13.25433018,90.0,90.0,90.0,ortho,Pbcm,11.5365724,-24.9092199125,-0.5899707228333341,0.009047160499989,False,7.189604089880579,0.0,False,515.6812039321534,,
mp-861512,PrCrSe3,20,Pr1 Cr1 Se3,3.97378937,8.18812469,13.77453414,90.0,90.0,90.0,ortho,Pnma,11.9954115,-6.479408271999998,-1.49215759973958,0.0,True,6.369317066277697,0.0,False,448.1941782068804,,
mp-1186515,PrCuO3,5,Pr1 Cu1 O3,3.8464840000000002,3.8464840000000002,3.8464840000000002,90.0,90.0,90.0,cubic,Pm-3m,0.0016305999999990002,-7.060295566000001,-2.312583337333333,0.024692680187500003,False,7.366070383638502,0.0,False,56.9104200105911,,
mp-1199144,PrErS3,40,Pr1 Er1 S3,3.96697321,11.043306295025943,21.53708070324474,78.5808262883878,90.0,90.0,mono,P2_1/m,0.0,-19.8706978315,-2.383820075187498,0.0,True,5.808271668244679,0.6393,True,924.8304558905145,,
mp-1069147,PrFeGe3,5,Pr1 Fe1 Ge3,5.826913979067248,5.826913979067248,5.826913979067248,136.63522546251727,136.63522546251727,62.99978067388925,tet,I4mm,5.08e-05,-5.9163978880000005,-0.489482641333333,0.0,True,7.4760963000172564,0.0,False,92.1042356254773,,
mp-22341,PrFeO3,20,Pr1 Fe1 O3,5.49878697,5.63563068,7.82389895,90.0,90.0,90.0,ortho,Pnma,19.9690725,-8.378956726,-2.757081589333333,0.0,True,6.705028763705313,1.0793,False,242.4558416265244,,
mp-1200999,PrFeSb3,40,Pr1 Fe1 Sb3,6.183377,12.186885,12.888024,90.0,90.0,90.0,ortho,Pbcm,0.0479825,-5.73116997925,-0.600670701583332,0.021099055113640002,False,7.687689864137624,0.0,False,971.1912821908986,,
mp-1210142,PrFeSb3,60,Pr1 Fe1 Sb3,6.297982,12.837543,18.328004,90.0,90.0,90.0,ortho,Pbcm,0.116903399999999,-5.711458701833333,-0.580959424166665,0.040810332530306005,False,7.5577651379541155,0.0,False,1481.8303903246651,,
mp-1219979,PrGa3Au,5,Pr1 Ga3 Au1,4.325099193789493,4.325097713742778,6.184387706428363,69.59754446074223,69.59753926629853,90.10098336466592,tet,I4mm,1e-07,-4.038639725999999,-0.607911420833332,0.0,True,9.027664635106657,0.0,False,100.62255001538247,,
mp-1220010,PrGa3Ni,5,Pr1 Ga3 Ni1,4.15414065,4.15414065,6.007960430522632,69.77426435394847,69.77426435394847,90.0,tet,I-4m2,5.2999999999999975e-06,-4.46204914,-0.530069898833333,0.046517406000001,False,7.505143534619982,0.0,False,90.44179290508461,,
mp-1219974,PrGa3Pd,5,Pr1 Ga3 Pd1,6.12742424613152,6.12742424613152,6.12742424613152,139.51517095677684,139.51517095677684,58.590187499930536,tet,I-4m2,0.0,-4.497758418000001,-0.6858301508333341,0.0,True,7.890177265939121,0.0,False,96.07268576453242,,
mp-1219973,PrGa3Pt,5,Pr1 Ga3 Pt1,6.144710442710552,6.144710442710552,6.144710442710552,139.82601515777407,139.82601515777407,58.11756520280302,tet,I-4m2,0.0,-4.713204569999999,-0.723026000833332,0.0,True,9.460611337509265,0.0,False,95.68732131600082,,
mp-4535,PrGaO3,20,Pr1 Ga1 O3,5.508641,5.609536999999999,7.8372209999999995,90.0,90.0,90.0,ortho,Pnma,0.0,-7.5675018089999995,-3.034011709833333,0.029260600857143004,False,7.093367763086663,3.3909000000000002,False,242.1773823202712,,
mp-9833,PrGaO3,5,Pr1 Ga1 O3,4.603177,4.603177,4.603177,90.0,90.0,90.0,cubic,Pm-3m,2.0011405,-6.122358972,-1.588868872833333,1.4744034378571431,False,4.403044172580138,0.0,False,97.53781528000668,,
mp-13072,PrGe3Rh,5,Pr1 Ge3 Rh1,5.916428590741785,5.916428590741785,5.916428590741785,136.1819901594707,136.1819901594707,63.699100766116985,tet,I4mm,0.0,-5.906688374000001,-0.700915795333333,0.0,True,7.826030970148279,0.0,False,97.97123686884038,,
mp-1186747,PrHfO3,5,Pr1 Hf1 O3,4.125883,4.125883,4.125883,90.0,90.0,90.0,cubic,Pm-3m,0.0120956,-9.369105913999999,-3.449797213333332,0.22375293974999602,False,8.686255885744457,0.0,False,70.23453716496483,,
mp-755462,PrHfO3,20,Pr1 Hf1 O3,5.759292,5.8893900000000015,8.156554,90.0,90.0,90.0,ortho,Pnma,0.302921799999999,-9.4575905385,-3.538281837833332,0.135268315249994,False,8.820581288157678,0.0,False,276.6598444711517,,
mp-1211193,PrIn3Pt,40,Pr1 In3 Pt1,10.089444,10.089444,10.089444,90.0,90.0,90.0,cubic,Pm-3n,0.0039619,-4.39493890325,-0.5661137015833311,0.033607960083337,False,8.80097574150456,0.0,False,1027.073922446575,,
mp-1105130,PrInO3,20,Pr1 In1 O3,5.67275125,5.96435251,8.20708483,90.0,90.0,90.0,ortho,Pnma,0.0,-7.3359782035,-2.856272560166665,0.005396318374999,False,7.265107067968361,2.633599999999999,True,277.68087306341386,,
mp-21872,PrLuO3,20,Pr1 Lu1 O3,5.733126950000593,5.967120430000527,8.28217456000064,89.99996985100624,89.999965730828,89.9999620156424,ortho,Pnma,0.0,-8.746118878999997,-3.9139104936666653,0.012616476499999,False,8.530176157036786,4.8757,True,283.33533637597355,,
mp-1078537,PrLuS3,10,Pr1 Lu1 S3,6.577864898465105,6.577864898465105,9.49266203,90.0,90.0,145.64587291368002,ortho,Cmcm,0.0,-20.708853522000002,-2.391086762354166,0.0,True,5.904416369209879,0.784999999999999,False,231.7782856755934,,
mp-1206692,PrLuS3,10,Pr1 Lu1 S3,6.674728462397926,6.674728462397926,9.992751,90.0,90.0,146.93324867038925,ortho,Cmcm,0.000206,-20.556846728000004,-2.239079968354167,0.152006793999998,False,5.633918482176531,0.7198000000000001,False,242.90651494156577,,
mp-13326,PrLuSe3,10,Pr1 Lu1 Se3,4.0329571,6.8518536969970505,9.9481706,90.0,90.0,107.11537463361466,ortho,Cmcm,0.0,-24.273439044,-2.189735595104165,0.0,True,6.987287394207647,0.49350000000000005,False,262.7259017084971,,
mp-1232298,PrMgS3,20,Pr1 Mg1 S3,8.157704607298122,11.448985,7.783897931711592,90.0,128.62925230097608,90.0,mono,C2/m,3.9999365,-5.2816790065,-1.513474971333332,0.39101609750000105,False,3.057257539341618,0.17450000000000002,False,567.9307150899408,,
mp-1232362,PrMgS3,30,Pr1 Mg1 S3,7.002782,7.002781905460858,17.281357,90.0,90.0,120.00000044658391,trig,R-3,3.1685823,-5.341493958333333,-1.5732899231666662,0.33120114566666803,False,3.548697343120511,0.0,False,733.9216165750518,,
mp-1237949,PrMgS3,10,Pr1 Mg1 S3,6.974429420134166,6.974429420134166,6.5709263579897925,76.89383710546547,76.89383710546547,114.63545303463671,mono,C2/m,0.0003965,-5.229823239,-1.461619203833332,0.44287186500000103,False,3.292510345796936,0.0,False,263.6757789916879,,
mp-1232136,PrMgSe3,10,Pr1 Mg1 Se3,7.3767356407648235,7.3767356407648235,6.88559159221784,76.46579677265967,76.46579677265967,115.88671335792543,mono,C2/m,9.890000000000003e-05,-4.748535748,-1.365800566739582,0.38838746500000004,False,4.413697457511545,0.0,False,302.55383842922765,,
mp-1232200,PrMgSe3,30,Pr1 Mg1 Se3,7.100363,7.100363480283879,19.63625,90.0,90.0,120.00000242129452,trig,R-3,3.477518,-4.844908553666667,-1.46217337240625,0.29201465933333204,False,4.672789041836666,0.0,False,857.3345140211349,,