mp_id,formula,sites,composition,a_edge (angstrom),b_edge (angstrom),c_edge (angstrom),alpha_ang (deg),beta_ang (deg),gamma_ang (deg),crystal_system,space_group,total_magnetisation (bohr),energy_per_atom (eV/atom),formation_energy (eV/atom),energy_above_hull (eV/atom),stable,density (g/cc),band_gap (eV),direct_bandgap,volume (cubic-angstrom),bulk_modulus (GPa),shear_modulus (GPa)
mp-777888,LiFeF3,20,Li1 Fe1 F3,6.105144,6.1117308242079025,6.12676190751542,90.0964564203797,90.04854479928005,90.17288889181677,trig,R3,16.0000001,-6.008078518,-2.785402322166666,0.036269686999999,False,3.480241645023156,3.4167,False,228.6063995238233,,
mp-777899,LiFeF3,20,Li1 Fe1 F3,3.997998,6.467314,9.913151,90.0,90.0,90.0,ortho,Pnma,15.9996135,-5.977178673,-2.754502477166666,0.067169531999999,False,3.103984485925202,3.4736000000000002,False,256.31748984224265,,
mp-780639,LiFeF3,10,Li1 Fe1 F3,7.407518,3.205213,4.944796329722387,89.94438197925338,90.0,90.0,mono,P2_1/m,7.9999924,-6.012686197,-2.790010001166666,0.031662007999999,False,3.388363329681764,3.2880000000000003,True,117.40262695151041,,
mp-780803,LiFeF3,80,Li1 Fe1 F3,5.652553,9.138324,19.704906,90.0,90.0,90.0,ortho,Pbca,63.9999985,-6.005163933125,-2.782487737291666,0.039184271874999003,False,3.126599197452572,3.4099,False,1017.8541753478848,,
mp-1185320,LiFeO3,5,Li1 Fe1 O3,3.776936,3.776936,3.776936,90.0,90.0,90.0,cubic,Pm-3m,4.7017182,-6.294544591999999,-1.249979173666666,0.31481297610000203,False,3.414350063209818,0.0,False,53.878919459443516,,
mp-752521,LiFeO3,20,Li1 Fe1 O3,4.914265617969485,4.914265617969485,9.708865560573491,86.19702506745664,86.19702506745664,118.44746454818629,mono,C2/c,12.0000846,-6.462050524,-1.417485105666666,0.147307044100001,False,3.59969868515039,0.33329999999999904,True,204.41876740507468,,
mp-752790,LiFeO3,10,Li1 Fe1 O3,6.615945256586394,6.615945256586394,5.991670238264119,76.76104320255503,76.76104320255503,25.139097243360215,mono,C2/m,5.9999004,-6.437056763000001,-1.392491344666667,0.1723008051,False,3.397188264440883,0.1985,False,108.3022062613327,,
mp-756941,LiFeO3,20,Li1 Fe1 O3,4.90058,4.972526,8.119357,90.0,90.0,90.0,ortho,Pnna,12.082027,-6.4609133395,-1.416347921166667,0.148444228600001,False,3.7191246250960743,0.0,False,197.85461430432758,,
mp-760833,LiFeO3,60,Li1 Fe1 O3,8.697356309962355,8.697356309962355,9.895406039782753,82.35823656751825,82.35823656751825,58.946052953082585,mono,Cm,36.0033893,-6.478154222666665,-1.433588804333332,0.131203345433336,False,3.483427483304907,0.30660000000000004,False,633.7258103762583,,
mp-761189,LiFeO3,10,Li1 Fe1 O3,5.79940734025064,5.79940734025064,6.194660014744393,72.8844489767387,72.8844489767387,29.071690635326206,mono,C2/m,8.0004517,-6.177499294,-1.132933875666667,0.43185827410000105,False,3.814901010366745,0.0,False,96.44365165026527,,
mp-28327,LiGaBr3,20,Li1 Ga1 Br3,6.590375715653577,7.986625989866916,10.43678705,90.0,90.0,93.48762417580384,mono,P2_1/m,0.0,-3.389012248499999,-1.419440549666665,0.0,True,3.832457538276029,2.9955,False,548.321490832187,,
mp-29344,LiGaCl3,40,Li1 Ga1 Cl3,6.1298285,9.67455319,15.08643494,90.0,90.0,90.0,ortho,Pnma,0.0,-7.966326549750001,-1.5089667385833332,0.0,True,2.717558421948949,3.7633,False,894.6761596929997,,
mp-29345,LiGaI3,20,Li1 Ga1 I3,11.46892782,7.205198266153673,8.491545130351117,87.90341095989442,90.0,90.0,mono,P2_1/m,0.0,-2.9085826215,-1.006771274666666,0.0,True,4.33230623565728,2.2732,False,701.2367235116269,,
mp-1185401,LiGdO3,5,Li1 Gd1 O3,3.703512,3.703512,3.703512,90.0,90.0,90.0,cubic,Pm-3m,5.0028096,-8.42768986,-2.261904235666667,0.35363091671428504,False,6.936351682565695,0.0,False,50.79737479231591,,
mp-1185303,LiGeO3,5,Li1 Ge1 O3,3.727265,3.727265,3.727265,90.0,90.0,90.0,cubic,Pm-3m,0.0641209,-5.94324491,-1.668078162666666,0.373687681199998,False,4.091270160724233,0.0,False,51.781045338759334,,
mp-973818,LiHoO3,5,Li1 Ho1 O3,3.66306,3.66306,3.66306,90.0,90.0,90.0,cubic,Pm-3m,1.9973633999999991,-6.51461901,-2.244521940666665,0.437087038089286,False,7.428173323527167,0.0,False,49.15097044898062,,
mp-1080052,LiIO3,10,Li1 I1 O3,5.698764524662253,5.698764524662253,3.543238,90.0,90.0,120.0000060910351,hex_,P6_3/mmc,0.0016749,-4.173756575,-0.518392875666666,0.8675189934999991,False,6.060171668023501,0.0,False,99.65345359511932,,
mp-1180548,LiIO3,10,Li1 I1 O3,6.7218160000000005,6.605730072553676,4.181631,90.0,90.0,120.5830501679444,ortho,Cmcm,0.0007993999999990001,-4.702256962,-1.046893262666666,0.33901860649999904,False,3.778114943450964,2.5038,True,159.84612568357002,,
mp-22955,LiIO3,10,Li1 I1 O3,5.451286392830256,5.452365867044904,5.091213541020776,90.00528201282887,90.00709658634639,120.00170408638265,hex_,P6_3,0.0,-5.040410448000001,-1.385046748666667,0.0008651204999980001,False,4.608385640769319,3.686099999999999,False,131.047417289717,,
mp-22994,LiIO3,20,Li1 I1 O3,5.18097706,5.8027117,9.33360494,90.0,90.0,90.0,ortho,Pna2_1,0.0,-5.039608833000001,-1.384245133666667,0.0016667354999980002,False,4.304425531982681,3.6546000000000003,False,280.60285007168596,,
mp-23384,LiIO3,40,Li1 I1 O3,9.578146540008262,9.578146540008262,6.18228917,90.0,90.0,90.0,tet,P4_2/n,0.0,-5.0412755685,-1.385911869166666,0.0,True,4.259170276463127,3.7886,False,567.1687177525457,,
mp-545343,LiIO3,10,Li1 I1 O3,5.230845550286684,5.230845550286684,4.811755,90.0,90.0,119.99999431204887,hex_,P6_322,3.96e-05,-4.790766707,-1.1354030076666661,0.250508861499999,False,5.296626197282368,0.0,False,114.01919138784967,,
mp-555562,LiIO3,40,Li1 I1 O3,9.977056,9.977056,6.7723379999999995,90.0,90.0,90.0,tet,P4_2/n,0.0,-4.893201819250001,-1.237838119916666,0.148073749249999,False,3.583387937245519,3.5742000000000003,False,674.1296746810573,,
mp-1185357,LiLaO3,5,Li1 La1 O3,3.822632,3.822632,3.822632,90.0,90.0,90.0,cubic,Pm-3m,1.9983233,-6.721507271999999,-2.383744674666666,0.22204904146428603,False,5.76256037230548,0.0,False,55.858268996912024,,
mp-976331,LiLuO3,5,Li1 Lu1 O3,3.629798,3.629798,3.629798,90.0,90.0,90.0,cubic,Pm-3m,2.0001168,-6.447261757999999,-2.192363090999999,0.5373579508392851,False,7.982747817184244,0.0,False,47.824162242947324,,
mp-23736,LiMgH3,10,Li1 Mg1 H3,5.25139063018162,5.251390193173642,5.251390273442318,55.93017213209847,55.93017618860866,55.9301734878981,trig,R3c,0.0,-3.103539746,-0.358561306416666,0.008794132000000001,False,1.227173873956212,0.0004,True,92.74378492412484,,
mp-1185356,LiMgO3,5,Li1 Mg1 O3,3.96983,3.96983,3.96983,90.0,90.0,90.0,cubic,Pm-3m,3.0,-4.987464342,-1.310809162666666,0.580104923428572,False,2.10329822220233,0.0,False,62.56273528519409,,
mp-1176630,LiMnF3,20,Li1 Mn1 F3,6.7879360060128,6.7879360060128,5.571834124065432,82.68957353724997,82.68957353724997,85.85145477781927,mono,C2/c,20.0002517,-6.378835669999999,-3.017760657752873,0.029746814499998,False,3.131274340137358,3.6287000000000003,False,252.1597564876359,,
mp-1176631,LiMnF3,10,Li1 Mn1 F3,3.258142,4.91663,7.672981,90.0,90.0,90.0,ortho,Pmma,10.0000001,-6.374038946000001,-3.012963933752874,0.034543538499996,False,3.211923862837004,0.015799999999999002,False,122.91408651380725,,
mp-1176632,LiMnF3,20,Li1 Mn1 F3,5.382932,5.465607,7.962184,90.0,90.0,90.0,ortho,Pnma,20.0028118,-6.364553785,-3.003478772752873,0.04402869949999701,False,3.370601357989199,0.0,False,234.25534236895334,,
mp-1176634,LiMnF3,10,Li1 Mn1 F3,6.048613229380847,6.048613229380847,5.477723,90.0,90.0,126.3189031340703,ortho,Cmc2_1,9.999846999999999,-6.321410674000001,-2.960335661752874,0.087171810499996,False,2.444916856240455,3.8619000000000003,True,161.47407489331906,,
mp-1176635,LiMnF3,10,Li1 Mn1 F3,5.062201460092634,5.062201460092634,7.106968,90.0,90.0,145.1813238492539,ortho,Cmcm,10.0000001,-6.341437138000001,-2.9803621257528743,0.06714534649999601,False,3.796486691386327,4.4878,False,103.98842920962474,,
mp-1176636,LiMnF3,20,Li1 Mn1 F3,6.410968118642457,6.410968118642457,6.479826,90.0,90.0,107.65237870842442,ortho,Cmcm,20.0004577,-6.332934342500001,-2.971859330252874,0.075648141999996,False,3.111234016144397,3.5585,False,253.7839876421476,,
mp-1371141,LiMnF3,30,Li1 Mn1 F3,5.93759738905401,5.93759738905401,11.67697,90.0,90.0,119.99999319255599,trig,P3c1,30.0,-6.376203399,-3.015128386752873,0.032379085499997004,False,3.322047490005086,3.8916999999999993,True,356.5187030651735,,
mp-752829,LiMnF3,10,Li1 Mn1 F3,5.662211133742454,5.662211133742454,5.662211392383809,56.61427416279993,56.61427416279993,56.614284965017404,trig,R-3,9.9995206,-6.368059022,-3.006984009752874,0.040523462499997005,False,3.336517459499199,3.7864999999999993,False,118.32417853187748,,
mp-752938,LiMnF3,10,Li1 Mn1 F3,5.829704707180715,5.829704707180715,5.829704483053321,55.155438822251114,55.155438822251114,55.15544207359848,trig,R-3c,10.0192488,-6.374343016,-3.013268003752874,0.034239468499997004,False,3.175743147147818,3.2439,False,124.314426343666,,
mp-753025,LiMnF3,20,Li1 Mn1 F3,5.425869776884255,5.425869776884255,10.485407,90.0,90.0,119.99999727947416,hex_,P6_322,20.0000001,-6.324031041,-2.962956028752875,0.084551443499996,False,2.9535357137794422,3.5423,False,267.3342907015824,,
mp-754676,LiMnF3,10,Li1 Mn1 F3,5.2024653779124765,5.2024653779124765,4.861054,90.0,90.0,119.99999208894684,hex_,P6_322,9.9999775,-6.383962293000001,-3.022887280752874,0.024620191499996003,False,3.464873556914298,3.6507,False,113.94086423866416,,
mp-754770,LiMnF3,20,Li1 Mn1 F3,10.224994,3.803118999999999,6.9452551226794395,87.32303619561678,90.0,90.0,mono,P2_1/c,20.0005821,-6.337088572000001,-2.9760135597528743,0.07149391249999601,False,2.9267114400579723,3.515,False,269.7844974731704,,
mp-756130,LiMnF3,20,Li1 Mn1 F3,5.412977603251004,5.412977603251004,9.861305,90.0,90.0,119.99999515078309,trig,P-31c,0.0,-6.342193985500001,-2.9811189732528742,0.066388498999996,False,3.15543610859212,3.6046,False,250.2289217503159,,
mp-757275,LiMnF3,40,Li1 Mn1 F3,10.186736,7.133177,7.881070709591749,65.52644829054923,90.0,90.0,mono,P2_1/c,40.0003328,-6.33221721725,-2.971142205002874,0.07636526724999701,False,3.029768187592477,3.5688,True,521.2157011473794,,
mp-758456,LiMnF3,10,Li1 Mn1 F3,5.1768980832990135,5.1768980832990135,7.718202,90.0,90.0,145.59987110857605,ortho,Cmcm,10.0,-6.306377043999999,-2.945302031752874,0.10220544049999701,False,3.378212916463923,3.5564,False,116.86376712032371,,
mp-758779,LiMnF3,30,Li1 Mn1 F3,5.936964,5.938230032936919,11.676970495100518,89.9709830180118,90.08854694367062,119.98774516806134,trig,P3,29.9972445,-6.376579277333334,-3.015504265086207,0.032003207166663,False,3.321642049176312,3.8879,True,356.56221986689513,,
mp-759023,LiMnF3,80,Li1 Mn1 F3,10.666514895061226,10.666514895061226,10.666514895061226,109.72241793376725,109.72241793376725,108.96998576488625,tet,I4_1/a,79.9966914,-6.346211247625,-2.9851362353778743,0.062371236874997,False,3.3809289759346512,3.4454000000000002,False,934.1590796201106,,
mp-759032,LiMnF3,40,Li1 Mn1 F3,12.016247,5.565437,7.724876113949401,76.88970606133915,90.0,90.0,mono,P2_1/c,39.9989032,-6.31520345875,-2.954128446502873,0.09337902574999701,False,3.138608698124928,0.0,False,503.14100994923757,,
mp-759042,LiMnF3,40,Li1 Mn1 F3,8.8594,8.8594,6.254912,90.0,90.0,90.0,tet,P4_2/n,39.9989933,-6.3306632355,-2.969588223252874,0.07791924899999701,False,3.2166000643961112,3.2651,False,490.9415900625844,,
mp-759048,LiMnF3,90,Li1 Mn1 F3,7.0008,8.050822176161947,21.515865928657647,82.98214645681391,82.39544830993238,88.73692165801549,tri,P-1,90.0013408,-6.340042525111111,-2.978967512863985,0.068539959388886,False,2.978330220876691,3.2519,False,1192.9893344488517,,
mp-759093,LiMnF3,20,Li1 Mn1 F3,5.048173,5.385453,9.006966,90.0,90.0,90.0,ortho,Pnna,20.0034563,-6.3789965685,-3.017921556252874,0.029585915999997003,False,3.2244964445956352,3.8236,False,244.86966838756607,,
mp-759492,LiMnF3,40,Li1 Mn1 F3,9.276248,5.719131,10.288974176736426,75.0303480477877,90.0,90.0,mono,P2_1/c,40.0055138,-6.368788849249999,-3.007713837002873,0.039793635249997,False,2.994656873191074,3.7384,False,527.3267746789631,,
mp-759538,LiMnF3,70,Li1 Mn1 F3,7.00626,7.999028797377841,16.639211673340778,91.27387282528156,96.8614373236644,91.53134006635092,tri,P-1,70.000359,-6.3370570950000005,-2.975982082752873,0.07152538949999601,False,2.9869501708446182,3.3597,False,925.2028506676169,,
mp-760095,LiMnF3,30,Li1 Mn1 F3,5.3283796180681415,5.3283796180681415,15.385922,90.0,90.0,119.99999525776872,trig,P-3,29.9992905,-6.314641766333334,-2.9535667540862063,0.09394071816666301,False,3.130715900096707,2.4262,True,378.3071030561871,,
mp-762988,LiMnF3,20,Li1 Mn1 F3,7.134825189647817,7.134825189647817,6.176130779959327,65.94312453040943,65.94312453040943,66.56361191834884,mono,Cc,19.9993222,-6.30946701,-2.948391997752874,0.09911547449999601,False,3.135199363303305,3.7014,False,251.84407229309372,,
mp-763003,LiMnF3,30,Li1 Mn1 F3,8.983558549602769,8.983558549602769,8.98355846449529,112.27347104794629,112.27347104794629,112.27347192780222,trig,R-3,29.9983387,-6.314515203333333,-2.953440191086207,0.094067281166664,False,2.408308100653744,2.5762,True,491.78593982058464,,
mp-763149,LiMnF3,20,Li1 Mn1 F3,6.24089,6.24089,6.24089,90.0,90.0,90.0,cubic,P2_13,20.0151153,-6.375878756500001,-3.014803744252874,0.032703727999996005,False,3.248308823262979,3.4382,False,243.074602220817,,
mp-763191,LiMnF3,20,Li1 Mn1 F3,7.825820578007267,7.825820578007267,7.825820578007267,144.46115083454063,109.91194444056786,81.12396431025536,ortho,Ibam,20.0011722,-6.3054804785,-2.9444054662528742,0.10310200599999701,False,3.093639070991598,3.5205,False,255.2273736483216,,
mp-763362,LiMnF3,20,Li1 Mn1 F3,5.258998,5.414067,8.443386,90.0,90.0,90.0,ortho,Pna2_1,19.9989281,-6.330681584,-2.969606571752874,0.07790090049999701,False,3.2843816714393332,3.6017,True,240.40487802350825,,
mp-764783,LiMnF3,20,Li1 Mn1 F3,5.646784,5.967319,8.7587,90.0,90.0,90.0,ortho,Pnma,20.0003155,-6.3178712595,-2.956796247252875,0.09071122499999701,False,2.67532663811538,2.6723,False,295.1345693104732,,
mp-765090,LiMnF3,40,Li1 Mn1 F3,7.730819,8.57623786995376,8.643438136681722,83.36270880439963,112.65779216750948,112.97876487061026,tri,P-1,20.0000001,-6.309294973999999,-2.948219961752873,0.09928751049999801,False,3.246163595394753,3.2241,False,486.47047624166396,,
mp-765457,LiMnF3,20,Li1 Mn1 F3,5.195478,5.977207,8.338164,90.0,90.0,90.0,ortho,Pnma,19.9995612,-6.3687901235,-3.007715111252873,0.039792360999997,False,3.049317569751577,2.9514,True,258.9370759337948,,
mp-774399,LiMnF3,50,Li1 Mn1 F3,7.029579,8.007542144680913,12.27668264917327,106.02747982033783,93.87285876590575,91.75172212571024,tri,P-1,49.9929305,-6.3295171656,-2.968442153352874,0.079065318899997,False,2.982710706362964,3.5994,False,661.7984887208629,,
mp-776156,LiMnF3,20,Li1 Mn1 F3,6.208448,6.208448,6.208448,90.0,90.0,90.0,cubic,P2_13,19.9994274,-6.362736642,-3.001661629752874,0.04584584249999701,False,3.299497104898932,3.5452,False,239.30355142081717,,
mp-776951,LiMnF3,20,Li1 Mn1 F3,5.123617,5.45322,7.724588,90.0,90.0,90.0,ortho,Pnma,20.0024638,-6.3694095065,-3.008334494252874,0.039172977999997,False,3.658405940691196,4.0,False,215.82661626550947,,
mp-777298,LiMnF3,40,Li1 Mn1 F3,5.8907609999999995,9.339731,10.068387,90.0,90.0,90.0,ortho,Pbcn,40.0004134,-6.35977178375,-2.998696771502874,0.048810700749997,False,2.850763699625378,3.5986000000000002,False,553.9437556390793,,
mp-777352,LiMnF3,80,Li1 Mn1 F3,5.739886,9.314545,19.7168,90.0,90.0,90.0,ortho,Pbca,79.99964,-6.3698282155,-3.008753203252874,0.038754268999997,False,2.996094749771859,3.7601,False,1054.1474032690624,,
mp-777355,LiMnF3,40,Li1 Mn1 F3,5.035124,8.902549,10.775428999999999,90.0,90.0,90.0,ortho,Pccn,40.0001332,-6.387215140749999,-3.026140128502874,0.021367343749997002,False,3.269397892949199,3.7031,True,483.01332597530217,,
mp-777655,LiMnF3,20,Li1 Mn1 F3,6.672620233066242,6.672620233066242,5.929779908883381,88.39624879947159,88.39624879947159,84.4101681822443,mono,C2/m,1e-07,-6.3499353415,-2.988860329252874,0.058647142999997,False,3.007085878049365,3.484099999999999,False,262.5736035238223,,
mp-777972,LiMnF3,40,Li1 Mn1 F3,5.465863,9.035989,10.052948,90.0,90.0,90.0,ortho,Pna2_1,40.0073808,-6.38120110425,-3.020126092002874,0.027381380249996003,False,3.180526507250842,3.6182,False,496.5098535132229,,
mp-778633,LiMnF3,30,Li1 Mn1 F3,7.130119,7.274539050538735,7.966696266798238,95.14485351449467,103.13989847447662,89.95698015022933,tri,P-1,29.9980996,-6.342207005333334,-2.981131993086207,0.066375479166663,False,2.955780143685831,3.707,False,400.6969412754181,,
mp-778697,LiMnF3,40,Li1 Mn1 F3,5.376671,7.323031,11.205083,90.0,90.0,90.0,ortho,Pnma,0.0007838999999990001,-6.355703264250001,-2.994628252002874,0.052879220249996,False,3.579377287631302,0.0,False,441.1836538346783,,
mp-778800,LiMnF3,30,Li1 Mn1 F3,6.578328,6.763391672532502,8.92642598847988,90.5661266322616,107.65830156468472,98.91742472846073,tri,P-1,29.995905,-6.332929427,-2.9718544147528743,0.07565305749999701,False,3.173711004587487,3.7265,False,373.182076422699,,
mp-778819,LiMnF3,10,Li1 Mn1 F3,6.41693580986377,6.41693580986377,3.242471,90.0,90.0,107.53874795931193,ortho,Amm2,9.9999694,-6.333152574,-2.972077561752874,0.075429910499996,False,3.101048950353377,3.4804,False,127.30875709250624,,
mp-779073,LiMnF3,30,Li1 Mn1 F3,12.143578690820016,12.143578690820016,12.143578737542283,28.483850050447174,28.483850050447174,28.483849465398883,trig,R-3c,29.9970997,-6.354766783666666,-2.99369177141954,0.053815700833331,False,3.290026784792962,3.795,True,359.9885776407317,,
mp-779317,LiMnF3,60,Li1 Mn1 F3,7.165301,7.242488,15.56412024927683,84.10873549456319,90.0,90.0,mono,P2_1/c,20.0000001,-6.342484478666667,-2.981409466419541,0.06609800583333,False,2.948296548887614,3.7196,False,803.4280426128704,,
mp-859873,LiMnF3,10,Li1 Mn1 F3,5.907202868375607,5.907202868375607,5.897964,90.0,90.0,120.00000972562948,hex_,P6_3/mmc,10.0,-6.31590179,-2.954826777752873,0.09268069449999701,False,2.214983123367355,3.7715,False,178.23643141457626,,
mp-1120793,LiMnO3,20,Li1 Mn1 O3,5.021823,5.154043,7.076345,90.0,90.0,90.0,ortho,Pnma,8.0004667,-6.8745640015,-1.6915997667528742,0.18392001396665902,False,3.9847255372421913,0.0,False,183.1548558590623,,
mp-1094130,LiNO3,5,Li1 N1 O3,4.114484898475628,4.114484898475628,4.114484876455011,60.13123032190905,60.13123032190905,60.13123889560518,trig,R-3m,1.1578998,-4.244329518,0.773887207333333,2.160649705999999,False,2.317591665417597,0.0,False,49.39928035651954,,
mp-696822,LiNO3,10,Li1 N1 O3,5.135315358091458,5.135315358091458,3.9501541275511007,70.42243482664753,70.42243482664753,86.90858273147346,mono,C2/c,0.000158899999999,-5.306114126,-0.287897400666666,1.098865097999999,False,2.481439523370168,0.0,False,92.27495520536065,,
mp-8180,LiNO3,10,Li1 N1 O3,5.6282986995685285,5.628299004691612,5.628298959259521,48.85424375961228,48.85424110580717,48.854247597981754,trig,R-3c,0.0,-6.404979223999999,-1.386762498666665,0.0,True,2.467377582518515,2.9369,False,92.80084348909155,,
mp-1078377,LiNbO3,10,Li1 Nb1 O3,5.726535083561874,5.726535083561874,5.726535643627218,54.959488575528674,54.959488575528674,54.95949491702538,trig,R-3,1.2100000000000001e-05,-8.249632965,-2.878810780666667,0.020706871000003003,False,4.189015426462623,3.684,True,117.21291827347063,,
mp-1196213,LiNbO3,40,Li1 Nb1 O3,6.186678614162385,8.26576876,9.509339252859911,90.0,89.9408803790502,90.0,mono,P2_1/c,0.0,-8.257009209,-2.886187024666665,0.013330627000003,False,4.038838730092427,3.1296,False,486.2850493830286,,
mp-3731,LiNbO3,40,Li1 Nb1 O3,5.153943290372108,5.5315293056284185,17.212470286130525,87.57036456897116,98.63069517097821,117.77099082815346,trig,R3c,0.0,-8.270339836,-2.899517651666666,0.0,True,4.577485851594526,3.3358,False,429.06236195769645,,
mp-552588,LiNbO3,10,Li1 Nb1 O3,5.543736002967854,5.543736002967854,5.543735554117368,56.75262760283625,56.75262760283625,56.752631020133535,trig,R-3c,8.010000000000002e-05,-8.237331804,-2.866509619666666,0.033008032000003004,False,4.405933343837936,2.275,False,111.44215867790756,,