mp_id,formula,sites,composition,a_edge (angstrom),b_edge (angstrom),c_edge (angstrom),alpha_ang (deg),beta_ang (deg),gamma_ang (deg),crystal_system,space_group,total_magnetisation (bohr),energy_per_atom (eV/atom),formation_energy (eV/atom),energy_above_hull (eV/atom),stable,density (g/cc),band_gap (eV),direct_bandgap,volume (cubic-angstrom),bulk_modulus (GPa),shear_modulus (GPa)
mp-1206985,TiFe3N,5,Ti1 Fe3 N1,3.738023,3.738023,3.738023,90.0,90.0,90.0,cubic,Pm-3m,1.6523892,-8.668377977999999,-0.33961129966666503,0.41883378200000104,False,7.293451067411127,0.0,False,52.23070739036822,,
mp-1179354,TiFeO3,10,Ti1 Fe1 O3,12.02535833209776,6.0518386753590026,6.173596396811909,127.27619778433022,145.33829005445088,39.49498585248921,tri,P-1,8.0000064,-8.896343262,-2.654464013666667,0.075248778999998,False,3.110330836948588,2.590099999999999,False,161.9896577618398,,
mp-1277107,TiFeO3,20,Ti1 Fe1 O3,5.1307693914645,5.554206936634788,8.954461721125677,106.22217531305269,89.46683158240572,115.58158959115006,tri,P-1,4e-07,-8.971592041000001,-2.729712792666666,0.0,True,4.597795231408048,2.2487,False,219.16653632662977,,
mp-19074,TiFeO3,10,Ti1 Fe1 O3,2.920566,5.0118585940245755,7.256845,90.0,90.0,106.93972797213429,ortho,Cmcm,7.9999614999999995,-8.848473615,-2.606594366666667,0.123118425999999,False,4.958433185471933,1.6437,False,101.6130315680444,,
mp-19270,TiFeO3,10,Ti1 Fe1 O3,5.421784203191788,5.421782928018802,5.421792388135289,56.01553175059012,56.0155078810663,56.01556113629198,trig,R3c,7.9999951,-8.939818291,-2.697939042666667,0.031773749999999004,False,4.925385335207109,2.052199999999999,False,102.29482436671371,,
mp-19417,TiFeO3,10,Ti1 Fe1 O3,5.442621798311974,5.442617915373791,5.442627718180305,55.71719058144874,55.71717238771104,55.717214652958674,trig,R-3,8.000182,-8.959550826000001,-2.717671577666666,0.012041214999998,False,4.907110856305436,2.7436,False,102.67577859097742,,
mp-20073,TiFeO3,20,Ti1 Fe1 O3,5.232802,5.291059,7.540401,90.0,90.0,90.0,ortho,Pnma,0.0,-8.899765687999999,-2.657886439666666,0.07182635300000001,False,4.826724611592713,1.5848,False,208.77156595728877,,
mp-694948,TiFeO3,80,Ti1 Fe1 O3,5.600984767426795,5.632906610778666,44.211220874086756,54.84026441678526,55.327743079134365,54.4048341373089,tri,P1,1.239071099999999,-8.256230565625,-2.014351317291667,0.7153614753749991,False,4.643159836564419,0.0,False,868.1009408044887,,
mp-780260,TiGeO3,10,Ti1 Ge1 O3,7.08193490769613,7.08193490769613,7.081934587773951,41.73268927315948,41.73268927315948,41.73269531190428,trig,R-3,0.0001215,-8.155536432,-2.683055854666666,0.06877411550000301,False,3.9330191466442272,1.1348999999999991,False,142.2873660627807,,
mp-1105715,TiGeS3,20,Ti1 Ge1 S3,3.47928158,9.11405508,13.697698280000001,90.0,90.0,90.0,ortho,Pnma,0.0,-6.167187987,-1.180468272166666,0.0,True,3.313776287212382,0.32369999999999904,False,434.35899785867554,,
mp-1016842,TiHgO3,5,Ti1 Hg1 O3,3.921312,3.921312,3.921312,90.0,90.0,90.0,cubic,Pm-3m,0.0065701,-6.728773948,-2.118964534166668,0.23989173000000003,False,8.164206384227668,0.0,False,60.29679039566384,"{'voigt': 174.512, 'reuss': 174.512, 'vrh': 174.512}","{'voigt': 54.017, 'reuss': 53.992, 'vrh': 54.005}"
mp-7607,TiHgO3,10,Ti1 Hg1 O3,5.446532724452869,5.446532724452869,5.577510370806404,60.77382907683248,60.77382907683248,59.99999120001339,trig,R-3c,0.0,-6.860181421,-2.250372007166668,0.10848425700000001,False,8.319374843308553,1.0936,True,118.34433484930989,,
mp-19082,TiMnO3,10,Ti1 Mn1 O3,5.5753933522062855,5.575393558040096,5.5753930126103,54.841964889567066,54.84195498082289,54.84195199373103,trig,R-3,10.0000004,-9.334882121,-2.9546040562528733,0.0,True,4.644506556173096,2.004899999999999,False,107.83263051258717,,
mp-19376,TiMnO3,10,Ti1 Mn1 O3,5.481156187440479,5.481155542431381,5.481156425688222,56.35558947360044,56.3555927463897,56.355589065512284,trig,R3c,9.9999843,-9.2985630085,-2.918284943752874,0.036319112499999,False,4.697118378262631,1.7771999999999992,False,106.62481101239541,,
mp-2234285,TiMnO3,10,Ti1 Mn1 O3,10.438015868307826,3.2978989265119996,6.7463694835516534,118.70669244102375,145.6178821588024,62.13521833319708,mono,C2/m,10.0000687,-9.135411479,-2.755133414252873,0.199470641999999,False,4.399474971888604,1.3274,False,113.83843812847203,,
mp-556925,TiMnO3,20,Ti1 Mn1 O3,5.205898000000865,5.398427000000833,7.561347,90.0,90.0,90.00006485807117,ortho,Pnma,4.8e-06,-9.274892319,-2.894614254252874,0.059989802,False,4.713654201746586,1.5326,False,212.50152766807804,,
mp-697089,TiMnO3,10,Ti1 Mn1 O3,10.20861305013453,3.102377900104853,6.350027253311595,115.92113767241216,146.40038567291109,63.89917403972099,tri,P-1,6.7291128,-8.471604506999999,-2.091326442252873,0.863277614000001,False,5.06263302412878,0.0,False,98.9266567412891,,
mp-743867,TiMnO3,10,Ti1 Mn1 O3,3.271871,5.957034626372588,6.173221756595254,100.59936457658885,105.30998006393031,92.30158368002874,tri,P-1,10.0003022,-9.134469726,-2.7541916612528743,0.20041239499999802,False,4.409899644458129,1.2289,False,113.56933258435684,,
mp-1246065,TiMoN3,20,Ti1 Mo1 N3,10.522310572521896,5.085708065611571,10.001143703188818,132.29659732416937,109.87708409179456,104.1578715793103,tri,P-1,5e-07,-9.618662941,-0.867467868666666,0.1133433828,False,4.525079427397709,0.0,False,272.76706553673876,,
mp-1216784,TiMoS3,10,Ti1 Mo1 S3,3.276855,6.157155,8.748226680326018,74.75831357689869,90.0,90.0,mono,P2_1/m,6.53e-05,-7.598895304,-1.367651138166665,0.041086732999995004,False,4.680452598492149,0.0,False,170.29664917043453,,
mp-18732,TiNiO3,10,Ti1 Ni1 O3,5.418666290052567,5.418698845277876,5.418672895058315,55.29147000895707,55.29143614952437,55.29128464480182,trig,R-3,4.0000001,-8.300620009,-2.596717666666666,0.0,True,5.1231277622590214,0.0,False,100.19293107218304,,
mp-531689,TiNiO3,60,Ti1 Ni1 O3,5.505179380255289,5.499397713225785,33.01173661692489,55.03462497062139,54.94943479010178,54.945044031154495,tri,P1,23.9967487,-8.284679899833334,-2.5807775575000003,0.015940109166665002,False,4.934833773785957,1.4963,False,624.0954126779501,,
mp-675030,TiNiO3,40,Ti1 Ni1 O3,5.503347,9.023183109554687,9.025730456315268,68.39944746302069,84.67834923835855,84.8808267760677,tri,P1,15.9999816,-8.2803009785,-2.576398636166666,0.020319030499999002,False,4.957154613212025,2.3354,False,414.1901770745118,,
mp-690546,TiNiO3,30,Ti1 Ni1 O3,5.0127671114825105,5.4224437607420235,12.47200758012355,93.13921938694331,90.20380297085218,117.33718317898962,tri,P1,11.9999999,-8.282212310666667,-2.578309968333334,0.018407698333332,False,5.123835266835122,2.2715,False,300.53728897985826,,
mp-698587,TiNiO3,50,Ti1 Ni1 O3,5.062602,5.489297899287759,21.01008739027444,94.29600298027032,89.87375335886001,117.3619654461765,tri,P1,19.9998453,-8.280607195,-2.576704852666667,0.020012813999999,False,4.966626181744278,1.708199999999999,False,516.7503733668699,,
mp-850194,TiNiO3,10,Ti1 Ni1 O3,5.443177577296703,5.443178871255496,5.443178510002083,54.719269875324095,54.71928208841392,54.71897244524113,trig,R3c,0.0,-8.286667864,-2.582765521666667,0.013952144999999002,False,5.132560035281104,0.0,False,100.00880325404562,,
mp-989613,TiPN3,5,Ti1 P1 N3,5.054459861413582,5.054459861413582,2.8348500000000003,90.0,90.0,116.15006518852611,ortho,Amm2,3.7300000000000005e-05,-10.892097999166667,-1.026880931345239,0.030168741333332003,False,3.087106687556918,0.528199999999999,False,65.01044611865268,"{'voigt': 187.657, 'reuss': 169.763, 'vrh': 178.71}","{'voigt': 79.442, 'reuss': 45.72, 'vrh': 62.581}"
mp-989624,TiPN3,20,Ti1 P1 N3,6.369055156255526,6.369055156255526,4.960984612344938,81.45446685569135,81.45446685569135,85.57015415182433,mono,C2/c,0.0,-10.9222667405,-1.057049672678572,0.0,True,4.085692904770749,0.5396000000000001,False,196.48484372342958,,
mp-1106215,TiPbO3,20,Ti1 Pb1 O3,3.7913652659252177,9.00965160479774,9.011379206762648,87.46602168054699,77.85201052727761,77.86351117797261,tet,I4/m,0.0,-8.015441889499996,-2.7250374691666632,0.0055523165000010005,False,6.8423080368338525,2.316,True,294.1999112684277,,
mp-19845,TiPbO3,5,Ti1 Pb1 O3,3.969049,3.969049,3.969049,90.0,90.0,90.0,cubic,Pm-3m,0.0001673,-7.9797724599999995,-2.689368039666666,0.041221745999997006,False,8.048700857425851,1.585,False,62.52581792285582,,
mp-20459,TiPbO3,5,Ti1 Pb1 O3,3.8795519,3.8795519,4.2858876200000005,90.0,90.0,90.0,tet,P4mm,0.0,-8.020994205999997,-2.7305897856666643,0.0,True,7.801556471692714,1.812999999999999,False,64.50656431866487,,
mp-996940,TiReN3,10,Ti1 Re1 N3,5.575193106209327,5.575193106209327,5.575192440270111,54.48762034219699,54.48762034219699,54.487619848011164,trig,R3c,0.0001037,-19.266308092083328,-0.719383345166662,0.08140965366666801,False,8.586445954775316,0.0,False,106.7880800793473,,
mp-1018639,TiSnO3,5,Ti1 Sn1 O3,3.950731,3.950731,3.950731,90.0,90.0,90.0,cubic,Pm-3m,0.0001412,-7.946378162,-2.5965887846666673,0.16012544750000202,False,5.778248869345959,1.0452,False,61.66409761506848,"{'voigt': 175.285, 'reuss': 175.285, 'vrh': 175.285}","{'voigt': 85.65, 'reuss': 85.63, 'vrh': 85.64}"
mp-754246,TiSnO3,10,Ti1 Sn1 O3,7.595236879415346,7.595236881195803,7.595237496641114,39.10563750579529,39.10563897010289,39.10563893345872,trig,R-3,0.0,-8.104400850999998,-2.754611473666665,0.002102758500004,False,4.544839624216931,1.1086,False,156.7978330522059,"{'voigt': -33.02, 'reuss': -3905.981, 'vrh': -1969.5}","{'voigt': 648713784553.35, 'reuss': -3183408.646, 'vrh': 324355300572.352}"
mp-1187488,TiTeO3,5,Ti1 Te1 O3,3.96247,3.96247,3.96247,90.0,90.0,90.0,cubic,Pm-3m,1.8e-06,-7.13092831,-1.954392125,0.598959147333333,False,5.964321374667137,0.0,False,62.21540914976123,,
mp-1216763,TiVO3,10,Ti1 V1 O3,5.043646510050774,5.541768605390437,5.04364466893183,117.06824507665742,120.00119234878812,62.93141434274446,trig,R3c,6.0,-9.394272778000001,-3.029616557666668,0.0,True,4.6937662299986105,0.0,False,103.87320059980844,,
mp-753428,TiVO3,20,Ti1 V1 O3,5.150667,5.552054711435399,7.621710654815886,83.97212827056391,89.7839707131909,89.88745280698873,tri,P1,10.0032291,-9.3057165345,-2.941060314166667,0.088556243500001,False,4.498801513679512,0.0,False,216.74951415159728,,
mp-755657,TiVO3,10,Ti1 V1 O3,5.485694757766934,5.48635648551719,5.486138244260743,55.539617093447134,55.537714978922395,55.535135022323765,trig,R-3,6.001692,-9.36486496,-3.000208739666667,0.029407818000001,False,4.658575783530177,0.0,False,104.65784905784909,,
mp-1246544,TiWN3,20,Ti1 W1 N3,5.38318785987829,8.070725084495445,9.447593549557528,82.96032964021049,120.9576666290387,109.21948431940959,tri,P-1,0.0013476,-19.093844515625,-0.7554838342083341,0.300235536499997,False,5.479331927886032,0.0,False,331.8174909783118,,
mp-1016927,TiZnO3,5,Ti1 Zn1 O3,3.843088,3.843088,3.843088,90.0,90.0,90.0,cubic,Pm-3m,0.0034796999999990004,-7.083898968,-2.284075239666666,0.5371176765000021,False,4.71816371378167,0.0,False,56.759817119617246,,
mp-1078470,TiZnO3,10,Ti1 Zn1 O3,5.517323487068798,5.517323487068798,5.5173233825369525,55.5471760058589,55.5471760058589,55.547178642986644,trig,R3c,9.240000000000001e-05,-7.565642529,-2.765818800666667,0.05537411550000201,False,5.029886833472973,2.8280000000000003,False,106.48434781971152,,
mp-1343137,TiZnO3,20,Ti1 Zn1 O3,5.145792,5.283548,7.569575,90.0,90.0,90.0,ortho,Pnma,0.0015317999999990002,-7.516832013,-2.717008284666666,0.10418463150000101,False,5.205046383559263,0.0,False,205.80190054063337,,
mp-14142,TiZnO3,10,Ti1 Zn1 O3,5.550590565239072,5.550590565239072,5.550590796112428,55.03777135930571,55.03777135930571,55.037766567577194,trig,R-3,0.0001076,-7.592381315999999,-2.792557587666666,0.028635328500002003,False,5.007411138147304,3.106999999999999,False,106.96230133551445,,
mp-635713,TiZnO3,10,Ti1 Zn1 O3,5.54714,5.674907808871084,5.916983532241239,65.48953513457013,63.99551653870254,68.24211124009544,tri,P-1,0.0001165,-7.525225238999999,-2.725401510666666,0.09579140550000201,False,3.613922060579641,3.1234,False,148.20580247472665,"{'voigt': 71.59, 'reuss': 59.451, 'vrh': 65.52}","{'voigt': 28.669, 'reuss': 21.521, 'vrh': 25.095}"
mp-998154,TlAgBr3,5,Tl1 Ag1 Br3,5.408564107976348,5.408564107976348,5.406525597973249,89.88538659064146,89.88538659064146,89.90345912481361,mono,Cm,0.0006301999999990001,-2.838739506,-0.813689626000001,0.05566522574999801,False,5.795348826320991,0.0,False,158.15388901605056,,
mp-998608,TlAgBr3,10,Tl1 Ag1 Br3,7.612962191232333,7.612962191232333,7.6129631304372545,60.58479749334857,60.58479749334857,60.584803219427734,trig,R3c,0.0025369,-2.845584166,-0.8205342860000011,0.048820565749998004,False,5.798882553244007,0.0,False,316.11502618708124,,
mp-998610,TlAgCl3,5,Tl1 Ag1 Cl3,5.05804552399038,5.057487568727159,5.05368375759891,89.99291913082762,89.97740305815839,89.95692534508001,tet,P4mm,0.11633399999999901,-3.163157829999997,-1.011153874999998,0.015710949000003003,False,5.376922233206921,0.0,False,129.27824855751618,,
mp-998748,TlAgCl3,10,Tl1 Ag1 Cl3,7.225175084685007,7.225175084685007,7.225175350729144,60.5196970391285,60.5196970391285,60.51969785311073,trig,R3c,0.0006573999999990001,-3.162428853,-1.010424898000001,0.016439926,False,5.152151247461498,0.0,False,269.8364452252637,,
mp-1400626,TlAgF3,5,Tl1 Ag1 F3,4.427712744436454,4.427712744436454,4.429410419089655,89.53279776682521,89.53279776682521,89.58829728084807,trig,R3m,0.0006768999999990001,-18.390947662874993,-1.6097185923749922,0.014893153000002001,False,7.061562665438684,0.0,False,86.82902291658905,,
mp-998152,TlAgF3,5,Tl1 Ag1 F3,4.42680524238022,4.428619645136733,4.429410080949155,89.89551541927757,89.1699172756231,89.58828775587648,mono,Cm,0.000413399999999,-18.389533532874992,-1.6083044623749911,0.016307283000003,False,7.061849824973184,0.0,False,86.82549214456475,,
mp-1187494,TlBO3,5,Tl1 B1 O3,3.53491,3.53491,3.53491,90.0,90.0,90.0,cubic,Pm-3m,0.0018869,-5.618110908,-0.8391615275000011,1.110085281166665,False,9.894355808092861,0.0,False,44.17078148014977,,
mp-28809,TlBS3,20,Tl1 B1 S3,12.170077,5.831758,7.067629714520774,66.3277442603952,90.0,90.0,mono,P2_1/c,8.130000000000001e-05,-4.9664970925,-0.6733085745,0.006876568249999,False,4.502134236531832,1.8034000000000001,False,459.40353654985586,,
mp-29959,TlBSe3,10,Tl1 B1 Se3,6.207316083202879,7.171495638976529,7.161215720969328,109.14907731894198,103.50478869432402,113.47667584942732,mono,Cc,0.0,-20.989716883,-0.297648988937498,0.0,True,5.99031722718172,0.9154,False,250.6334832317473,,
mp-1179184,TlBrO3,5,Tl1 Br1 O3,3.658287999671704,7.079458695100212,4.212474899743617,87.6675508744921,115.73572582872067,95.37797282034495,mono,Cm,5.92e-05,-3.9306548240000003,-0.16019449066666802,0.48937173124999905,False,5.639358262881194,0.054200000000000005,False,97.84323468975863,,
mp-29798,TlBrO3,5,Tl1 Br1 O3,4.454219760264706,4.454220478491551,4.4542198044089645,86.79052411418647,86.79052888669878,86.7905219733485,trig,R3m,0.0,-4.412738808,-0.6422784746666681,0.0072877472499990005,False,6.2722039936004,3.5098000000000003,False,87.97115887456695,,
mp-28219,TlCdBr3,20,Tl1 Cd1 Br3,4.16632915,9.4840848,15.49769506,90.0,90.0,90.0,ortho,Pnma,0.0,-2.842122550499999,-1.193658168166667,0.0026325565,False,6.036192160507899,2.7489,False,612.3731169494534,,
mp-28218,TlCdCl3,20,Tl1 Cd1 Cl3,3.979425769999999,9.0244099,14.90375801,90.0,90.0,90.0,ortho,Pnma,0.0,-3.209719188499997,-1.434300731166665,0.0,True,5.251360210746544,3.2976,False,535.2233003348425,,
mp-1412222,TlCdF3,5,Tl1 Cd1 F3,4.418375516068026,4.418375516068026,4.419349275303454,89.95704768319263,89.95704768319263,90.0340807417312,trig,R3m,0.0,-18.753647902,-2.222596722499998,0.009239023000006001,False,7.194373047437343,4.1944,False,86.27465927655058,,
mp-998623,TlCdF3,5,Tl1 Cd1 F3,4.418730675280331,4.419278366132936,4.430989125414975,89.95341941650182,90.1154658835534,90.09547893241559,mono,Cm,0.0,-18.756484264,-2.225433084499997,0.006402661000006001,False,7.173453033858041,4.2415,False,86.5262629373115,,
mp-998759,TlCdF3,40,Tl1 Cd1 F3,6.16844095,8.7315402,12.59989595,90.0,90.0,90.0,ortho,Pbam,0.0,-18.762886925,-2.231835745499998,0.0,True,7.316998483333884,3.9371,True,678.6302714587923,,
mp-27252,TlCdI3,20,Tl1 Cd1 I3,4.497421,10.395807,16.637704,90.0,90.0,90.0,ortho,Pnma,0.0002936,-2.4072553725,-0.826551342166668,0.016685705522220002,False,5.955839094947377,2.1776,False,777.8845487563913,,
mp-1207995,TlCdN3,5,Tl1 Cd1 N3,4.47241,4.47241,4.47241,90.0,90.0,90.0,cubic,Pm-3m,5.3186794,-18.24220118241666,1.8919076743333392,1.8919076743333352,False,6.660305218146949,0.0,False,89.45916280761851,,
mp-29738,TlClO3,5,Tl1 Cl1 O3,4.574928330334804,4.574927649682124,4.574928330334804,83.89769318868409,83.8976934639343,83.89769318868409,trig,R3m,0.0,-4.532848862,-0.720070503666668,0.061993026555557,False,5.072115205708985,4.3481,False,94.23296052646893,,
mp-2353285,TlCoCl3,10,Tl1 Co1 Cl3,7.0491723569496845,7.049077422632012,5.914459276329223,89.87543291503816,90.12633530350432,120.11882825285294,mono,C2/m,6.0000001,-4.130708261,-1.120608497666668,0.004752210999997001,False,4.829546171206906,0.19820000000000002,False,254.21047015636617,"{'voigt': 14.782, 'reuss': 19.614, 'vrh': 17.198}","{'voigt': 6.75, 'reuss': 6.625, 'vrh': 6.688}"
mp-567430,TlCoCl3,30,Tl1 Co1 Cl3,11.92393453,11.923933814613358,5.92586096,90.0,90.0,119.9999993416951,hex_,P6_3cm,17.9869922,-4.009736908666666,-0.999637145333334,0.12572356333333,False,5.047772571831284,0.0,False,729.6611636242836,,
mp-567620,TlCoCl3,40,Tl1 Co1 Cl3,5.93600896055273,11.959236534884758,13.784945942561345,90.02380050869056,90.00946375147217,89.97055710329059,ortho,Pbca,23.9922846,-4.1272699799999994,-1.117170216666668,0.008190491999997001,False,5.018301814144361,0.0,False,978.5949496811735,,
mp-569753,TlCoCl3,10,Tl1 Co1 Cl3,6.89499275023813,6.895217011703952,5.916756370025201,89.99973581827916,89.99989278338163,119.99847909259213,hex_,P6_3/mmc,5.997407,-4.124859668000002,-1.11475990466667,0.010600803999995,False,5.039611157695193,0.0,False,243.6142718966972,,
mp-998160,TlCoF3,5,Tl1 Co1 F3,4.200322,4.200322,4.200322,90.0,90.0,90.0,cubic,Pm-3m,3.000163,-5.042304014000001,-1.994438866166668,0.19647911349999803,False,7.177515697688809,0.0,False,74.10504154645177,,
mp-755788,TlCoO3,10,Tl1 Co1 O3,5.78674871444795,5.78674871444795,5.786748024934558,53.72007514541692,53.72007514541692,53.720076567731915,trig,R-3,1.54e-05,-5.9678646130000015,-1.098110242666668,0.06708455771428401,False,8.84413697374225,0.464,False,116.90235340971311,,
mp-756464,TlCoO3,20,Tl1 Co1 O3,5.394129,5.4164390000000004,7.961695,90.0,90.0,90.0,ortho,Pnma,7.999998,-5.9446741835,-1.074919813166668,0.09027498721428401,False,8.88930870962134,0.0,False,232.6166094308966,,
mp-770614,TlCoO3,20,Tl1 Co1 O3,5.327076,5.409948766464707,7.9247608346280085,89.4899364564669,89.5310950906625,89.13552350360524,tri,P-1,3.999893,-5.933432736999999,-1.063678366666668,0.10151643371428501,False,9.055683169260453,0.14299999999999902,False,228.34288850076067,,
mp-1105306,TlCrO3,20,Tl1 Cr1 O3,5.416771,5.521843,7.819103,90.0,90.0,90.0,ortho,Pnma,11.9996878,-7.067328762,-1.6936482416666672,0.039864296500002006,False,8.644508645260622,0.43460000000000004,False,233.87374183496345,,
mp-1105457,TlCuCl3,20,Tl1 Cu1 Cl3,4.013262397925842,8.871401639762713,14.15560284,90.0,90.0,96.69851072164629,mono,P2_1/c,3.999999599999999,-3.4822783455,-1.079020592166669,0.0013938294999980001,False,4.966746229309072,0.41430000000000006,False,500.54527904298516,,
mp-998147,TlCuCl3,5,Tl1 Cu1 Cl3,4.82013622,4.82013622,4.82013726,90.0,90.0,90.0,cubic,Pm-3m,0.5335436,-3.4547555785000013,-1.051497825166669,0.028916596499997,False,5.5497998367492904,0.0,False,111.9896865839664,"{'voigt': 39.029, 'reuss': 39.029, 'vrh': 39.029}","{'voigt': 17.614, 'reuss': 17.242, 'vrh': 17.428}"
mp-554973,TlCuF3,5,Tl1 Cu1 F3,4.07632852,4.09064598,4.0903874,90.0,90.0,90.0,cubic,Pm-3m,0.9999977,-16.542456506,-1.863043664499997,0.003841090000001,False,7.910538609806286,0.0,False,68.20646083666094,"{'voigt': 70.161, 'reuss': 70.161, 'vrh': 70.161}","{'voigt': 26.409, 'reuss': 25.04, 'vrh': 25.725}"