mp_id,formula,sites,composition,a_edge (angstrom),b_edge (angstrom),c_edge (angstrom),alpha_ang (deg),beta_ang (deg),gamma_ang (deg),crystal_system,space_group,total_magnetisation (bohr),energy_per_atom (eV/atom),formation_energy (eV/atom),energy_above_hull (eV/atom),stable,density (g/cc),band_gap (eV),direct_bandgap,volume (cubic-angstrom),bulk_modulus (GPa),shear_modulus (GPa)
mp-998560,InSnCl3,5,In1 Sn1 Cl3,5.669548063170556,5.669548063170556,5.776513428212731,88.63860675244186,88.63860675244186,88.79573020938919,mono,Cm,6.3e-05,-3.745110082,-1.282238966333333,0.020097126999999,False,3.04198558387436,2.078799999999999,True,185.53527824765155,,
mp-998567,InSnCl3,10,In1 Sn1 Cl3,8.133889658462918,8.133889658462918,8.133889767558077,58.707011668772395,58.707011668772395,58.70700778602293,trig,R-3,0.001112299999999,-3.765207208999999,-1.302336093333333,0.0,True,3.056734997726825,3.0433,False,369.28006003084545,,
mp-9200,K3AuO,5,K3 Au1 O1,5.22438571,5.22438571,5.22438571,90.0,90.0,90.0,cubic,Pm-3m,0.0,-3.202910127999999,-0.8797196933499991,0.0,True,3.845922408760981,0.5612,False,142.59546003697025,"{'voigt': 18.66, 'reuss': 18.66, 'vrh': 18.66}","{'voigt': 11.981, 'reuss': 11.327, 'vrh': 11.654}"
mp-28166,K3BrO,5,K3 Br1 O1,5.19026401,5.19026401,5.19026401,90.0,90.0,90.0,cubic,Pm-3m,0.0,-3.560015648000001,-1.56421230635,0.0,True,2.532004578426728,0.8913000000000001,True,139.8196942845503,"{'voigt': 19.399, 'reuss': 19.399, 'vrh': 19.399}","{'voigt': 13.147, 'reuss': 12.437, 'vrh': 12.792}"
mp-1070737,K3CO,5,K3 C1 O1,5.231062,5.231062,5.231062,90.0,90.0,90.0,cubic,Pm-3m,3.0,-3.312135065999999,0.202012067149999,1.050258530237498,False,1.6856214686073812,0.2972,False,143.1428310364701,,
mp-1223812,K3ClO,5,K3 Cl1 O1,5.13676547,5.1466880083214885,5.143947178761857,89.54404140941126,90.0,90.0,mono,Pm,0.0,-3.659546362,-1.62142499535,0.018001367999999,False,2.06056159970862,0.9897,True,135.987919057064,,
mp-572291,K3ClO,20,K3 Cl1 O1,7.161954390185798,7.31194696466287,10.229909246687411,90.00404383250846,89.99970258397845,89.99908909604278,ortho,Pnma,0.0,-3.6771526304999993,-1.639031263849999,0.00039509950000000005,False,2.092230640911296,1.0785,True,535.7181537332247,,
mp-673798,K3ClO,10,K3 Cl1 O1,5.24302534,10.081885479923361,7.138101563923913,45.07325321306461,90.0,90.0,ortho,Amm2,0.0,-3.670071289,-1.63194992235,0.007476440999999,False,2.097828318215231,1.0264,True,267.1443431287701,,
mp-28171,K3IO,5,K3 I1 O1,5.29423015,5.29423015,5.29423015,90.0,90.0,90.0,cubic,Pm-3m,0.0,-3.419062857999999,-1.445846300349999,0.0,True,2.911695034511509,1.0284,True,148.3913038780024,"{'voigt': 18.587, 'reuss': 18.587, 'vrh': 18.587}","{'voigt': 12.806000000000001, 'reuss': 12.717, 'vrh': 12.762}"
mp-675156,K3NO,25,K3 N1 O1,5.218731,5.199099,25.797810705951093,88.27487677013745,90.0,90.0,mono,P2,9.999842,-3.5224329364,-0.18636335274999902,0.591432867966666,False,1.748017726103471,0.0,False,699.6469812536895,,
mp-1211900,K3SI,30,K3 S1 I1,13.996582365331083,13.996582365331083,8.213291,90.0,90.0,120.00000172685795,hex_,P6_3cm,0.0005819999999990001,-3.041001119,-1.229704848849999,0.16313343500000002,False,1.975301449046469,1.0356,True,1393.4514531422635,,
mp-1185008,KAcO3,5,K1 Ac1 O3,4.65408,4.65408,4.65408,90.0,90.0,90.0,cubic,Pm-3m,0.002486099999999,-6.231918364,-2.212632814949999,0.207251153499997,False,5.173812216172573,0.0,False,100.80951668519734,,
mp-998553,KAgBr3,10,K1 Ag1 Br3,7.427913033624875,7.427912658365014,7.4279136897573395,61.64015932279463,61.64014644967858,61.64015786035404,trig,R3c,8e-07,-2.9559020009999992,-1.178872599783332,0.0,True,4.274217927923269,0.0,False,300.45017184056644,,
mp-998568,KAgBr3,5,K1 Ag1 Br3,5.353612944081909,5.339531110926847,5.351152760035055,89.8845294593043,89.97814514545226,90.0314601538544,tet,P4mm,5e-07,-2.947973084999999,-1.170943683783332,0.007928916000000001,False,4.197615571595639,0.0,False,152.96654600988356,,
mp-2464440,KAgCl3,5,K1 Ag1 Cl3,5.12817365,5.12817365,5.12884144,90.0,90.0,90.0,cubic,Pm-3m,1.3e-06,-10.351234144999998,-1.184942590249997,0.0037957010000010004,False,3.118769564951972,0.0,False,134.87911836873917,,
mp-998554,KAgCl3,5,K1 Ag1 Cl3,5.055190599113022,5.055300118341113,5.067238667179525,90.03159851115491,90.00151249224542,89.99824552756786,tet,P4mm,0.2725054,-10.353133994,-1.186842439249999,0.0018958519999980003,False,3.248420436836444,0.0,False,129.4958265087279,,
mp-998750,KAgCl3,10,K1 Ag1 Cl3,7.071671228549677,7.071672020116387,7.071671844039611,61.04256827408295,61.042571363905786,61.042575473295045,trig,R3c,1.5300000000000003e-05,-10.355029845999999,-1.188738291249998,0.0,True,3.287218951634839,0.0,False,255.93481633267663,,
mp-1205357,KAgF3,20,K1 Ag1 F3,5.99687912,6.18287501,8.5032308,90.0,90.0,90.0,ortho,Pnma,7.010000000000001e-05,-4.056807443999999,-2.115058583283331,0.0,True,4.296927274670757,0.0,False,315.2824008707714,,
mp-13819,KAgF3,5,K1 Ag1 F3,4.313309,4.313309,4.313309,90.0,90.0,90.0,cubic,Pm-3m,9.720000000000003e-05,-4.050566123999999,-2.108817263283332,0.006241319999999001,False,4.220520618937506,0.0,False,80.24753755772119,,
mp-976229,KAgO3,5,K1 Ag1 O3,4.192631,4.192631,4.192631,90.0,90.0,90.0,cubic,Pm-3m,1.6557594,-4.254392346,-0.49075426278333206,0.326060584999998,False,4.392837719467964,0.0,False,73.698716327076,,
mp-1097006,KAlH3,5,K1 Al1 H3,3.981683,3.981683,3.981683,90.0,90.0,90.0,cubic,Pm-3m,0.0051862,-4.705113429666666,-0.081973535666665,0.184462262166668,False,1.8178167292606302,0.0,False,63.124804004285735,,
mp-1184936,KAlO3,5,K1 Al1 O3,3.867014,3.867014,3.867014,90.0,90.0,90.0,cubic,Pm-3m,1.9998285,-6.000558207999999,-2.056392494449999,0.27112893737500104,False,3.2758492645817032,0.0,False,57.826543420211806,,
mp-1105278,KAsO3,20,K1 As1 O3,4.5917816221457395,5.913656476861086,12.932589381948342,90.01812787839052,89.99684129339936,90.00160278850772,ortho,P2_12_12_1,0.0,-6.05730145525,-1.928226401199999,0.010709009749998001,False,3.064430944575242,3.3848000000000003,True,351.1743477497046,,
mp-1184937,KAsO3,5,K1 As1 O3,3.843473,3.843473,3.843473,90.0,90.0,90.0,cubic,Pm-3m,0.065477,-5.638646618,-1.509571563949999,0.429363846999998,False,4.738502659343299,0.0,False,56.77687739940846,,
mp-1192552,KAsO3,30,K1 As1 O3,7.5598423473047545,7.563372238872407,10.319524571897741,85.72938348866877,111.24988391221444,106.86135238742283,tri,P-1,0.0,-6.062744605916666,-1.9336695518666662,0.0052658590833320005,False,3.06899767362125,3.148799999999999,True,525.9776900948693,,
mp-1194970,KAsO3,40,K1 As1 O3,4.90279138,11.38334748,11.51034733,90.0,90.0,90.0,ortho,Pbcn,0.0,-6.068010464999999,-1.9389354109499992,0.0,True,3.350431811824509,3.0119,True,642.3945321837153,,
mp-1195114,KAsO3,120,K1 As1 O3,8.94064429799319,19.12823845,12.237694349743238,90.0,90.27242594556247,90.0,mono,P2_1/c,0.0,-6.06512611225,-1.9360510582000001,0.002884352749998,False,3.085214666955281,3.1596,False,2092.85185185622,,
mp-1112174,KAuBr3,5,K1 Au1 Br3,5.413378,5.413378,5.413378,90.0,90.0,90.0,cubic,Pm-3m,0.002490699999999,-2.96675448,-1.103536214449999,0.04632947512499801,False,4.980206611863565,0.0,False,158.63720916259328,,
mp-1110854,KAuCl3,5,K1 Au1 Cl3,5.138475,5.138475,5.138475,90.0,90.0,90.0,cubic,Pm-3m,0.001226699999999,-3.282036358,-1.2918640174499991,0.062613484666665,False,4.190929775408473,0.0,False,135.6759101875909,,
mp-1111868,KAuF3,5,K1 Au1 F3,4.4844,4.4844,4.4844,90.0,90.0,90.0,cubic,Pm-3m,0.249634499999999,-3.914434607999999,-1.886496882949999,0.160711599999999,False,5.396258273551395,0.0,False,90.180581563584,,
mp-31045,KAuI3,20,K1 Au1 I3,9.46142359,7.368523763286021,13.454761311800006,59.10163995142827,90.0,90.0,mono,P2_1/c,0.0,-2.6822722370000003,-0.8868143234500001,0.0,True,5.089763555767355,0.6459,False,804.8974507267882,,
mp-1184942,KAuO3,5,K1 Au1 O3,4.15778,4.15778,4.15778,90.0,90.0,90.0,cubic,Pm-3m,1.3575593,-4.400781534,-0.5509545864499991,0.364279868,False,6.562651688367877,0.0,False,71.87610219949094,,
mp-1223538,KBaN3,20,K1 Ba1 N3,14.061109163712228,13.342195382068013,7.195144681597237,80.38480048853145,69.31591885043589,30.29928066103268,ortho,F222,24.0011653,-4.250331078,1.362704501549999,1.851196041366665,False,2.381288020718385,0.0,False,609.312468652378,,
mp-973447,KBaO3,5,K1 Ba1 O3,5.013731,5.013731,5.013731,90.0,90.0,90.0,cubic,Pm-3m,3.0000002,-4.821337168,-1.24249163245,0.5736075070000011,False,2.956884365883195,0.0,False,126.03265569426269,,
mp-1211678,KBeF3,20,K1 Be1 F3,4.45356696,5.41615052,11.98714706,90.0,90.0,90.0,ortho,P2_12_12_1,0.0,-5.52779316,-3.40674926195,0.0,True,2.41446424243066,7.061299999999999,False,289.14423988007974,,
mp-974757,KBeH3,20,K1 Be1 H3,5.497438,6.861258,9.044220096617783,74.10853319837285,90.0,90.0,mono,P2_1/c,8e-05,-3.208797448,-0.197541067199999,0.007877580666666,False,1.035164852651831,3.0876,True,328.1042855997409,,
mp-973396,KBeO3,5,K1 Be1 O3,3.771574,3.771574,3.771574,90.0,90.0,90.0,cubic,Pm-3m,2.9999697999999992,-5.136239456,-1.19330633545,0.635952091,False,2.9747044245727032,0.0,False,53.64977433795312,"{'voigt': 92.168, 'reuss': 92.168, 'vrh': 92.168}","{'voigt': 33.846, 'reuss': 22.045, 'vrh': 27.945}"
mp-29799,KBiO3,60,K1 Bi1 O3,10.06653795,10.06653795,10.06653795,90.0,90.0,90.0,cubic,Pn-3,0.0,-5.545642485500002,-1.572585075950002,0.0,True,5.7835495813543005,0.49140000000000006,True,1020.0944985470918,,
mp-676536,KBiO3,90,K1 Bi1 O3,8.754482,8.99007956907001,22.17956562275323,97.23607675445858,96.20583411863225,109.95299723959695,tri,P1,0.0074692,-5.514770433111111,-1.541713023561111,0.030872052388891003,False,5.509511103296838,0.186199999999999,True,1606.2497196394143,,
mp-863367,KBiO3,30,K1 Bi1 O3,8.640119551476594,8.640119551476594,10.033762538928476,55.82079292127204,55.82079292127204,71.90437719752403,mono,C2/m,0.0,-5.536190914500002,-1.563133504950003,0.009451570999999001,False,5.754443719876694,0.49059999999999904,True,512.6270580799318,,
mp-982040,KBiO3,5,K1 Bi1 O3,4.284204,4.284204,4.284204,90.0,90.0,90.0,cubic,Pm-3m,0.0005425,-5.452773802,-1.479716392449999,0.092868683500001,False,6.252348761231978,0.0,False,78.63401066432932,"{'voigt': 86.685, 'reuss': 86.685, 'vrh': 86.685}","{'voigt': 70.215, 'reuss': 60.676, 'vrh': 65.445}"
mp-22958,KBrO3,5,K1 Br1 O3,4.394010314775126,4.394010476012435,4.394009925667468,85.10928318798958,85.1092845005652,85.10928800253501,trig,R3m,0.0,-4.567074504,-1.044634649449999,0.0,True,3.302905240368695,3.8569,True,83.95967616702733,,
mp-1105868,KCO3,20,K1 C1 O3,10.319265,4.493736,7.7769700414509115,63.698285516449594,90.0,90.0,mono,P2_1/c,4.0004309,-6.8399012804999995,-1.799117634449999,0.011834444999999002,False,2.036152266576608,0.09640000000000001,True,323.2987632266502,,
mp-1106094,KCO3,20,K1 C1 O3,5.786966,4.005711,15.328731218885697,80.49497619052485,90.0,90.0,mono,P2_1/c,4.0017107,-6.851735725499999,-1.810952079449999,0.0,True,1.8783703459986012,0.875599999999999,False,350.45565477951186,,
mp-31302,KCO3,40,K1 C1 O3,11.095666,7.305058,8.541060883984201,68.65409126177482,90.0,90.0,mono,P2_1/c,0.0027245,-6.777014060000001,-1.73623041395,0.07472166549999801,False,2.041828476718001,4.1733,False,644.8000084546517,,
mp-1211648,KCaBr3,20,K1 Ca1 Br3,7.58990711,8.05949747,10.97533155,90.0,90.0,90.0,ortho,Pnma,0.0,-3.8735490104999992,-2.263987168949999,0.005432399500000001,False,3.154900024517205,4.575299999999999,True,671.3702189186729,,
mp-998599,KCaBr3,10,K1 Ca1 Br3,4.267215332258245,7.38073649610188,10.754171370507512,90.00076391311366,90.00054285314268,106.79696787183063,ortho,Cmcm,0.0,-3.878981409999999,-2.269419568449999,0.0,True,3.266123660458214,4.4047,True,324.2537852699501,,
mp-998749,KCaBr3,5,K1 Ca1 Br3,5.721591970923915,5.721591970923915,5.716306996816826,89.89823650051311,89.89823650051311,89.88657752717934,mono,Cm,2.1000000000000002e-05,-3.824431044,-2.214869202449999,0.054550366,False,2.829701269335993,3.8983,False,187.1315837363699,,
mp-1211589,KCaCl3,5,K1 Ca1 Cl3,5.393523,5.393523,5.393523,90.0,90.0,90.0,cubic,Pm-3m,6.570000000000001e-05,-8.744588535000002,-2.441813669250002,0.045733154499998006,False,1.9636226957257221,4.7635000000000005,False,156.89807138304974,,
mp-1211643,KCaCl3,20,K1 Ca1 Cl3,7.20898851,7.59169634,10.45793088,90.0,90.0,90.0,ortho,Pnma,0.0,-8.7903216895,-2.48754682375,0.0,True,2.153162020579438,5.5615,True,572.3463649065128,,
mp-998421,KCaCl3,10,K1 Ca1 Cl3,7.2342414550363925,7.23424188533617,8.027073376171643,63.21683876589062,63.21683933329001,60.00000336219831,trig,R-3,0.0,-8.772165423,-2.46939055725,0.0181562665,False,1.983308022920182,5.616,False,310.68155861108005,,
mp-998601,KCaCl3,5,K1 Ca1 Cl3,5.407372224918588,5.407372224918588,5.406517025782218,89.99604413305212,89.99604413305212,90.02171299600045,mono,Cm,0.0002183,-8.744655511000001,-2.441880645250002,0.045666178499999,False,1.94888213557156,4.7457,False,158.08478525203168,,
mp-4950,KCaF3,5,K1 Ca1 F3,4.481726,4.481726,4.481726,90.0,90.0,90.0,cubic,Pm-3m,0.0,-5.471143295999999,-3.696861994949999,0.023864284499999004,False,2.51188322213785,6.1392,False,90.01935657512333,"{'voigt': 48.658, 'reuss': 48.658, 'vrh': 48.658}","{'voigt': 27.947, 'reuss': 22.645, 'vrh': 25.296}"
mp-5926,KCaF3,20,K1 Ca1 F3,6.12777352,6.22062595,8.71579992,90.0,90.0,90.0,ortho,Pnma,0.0,-5.495007580499998,-3.7207262794499982,0.0,True,2.7223959847326933,6.6502,False,332.23397730054904,,
mp-643749,KCaF3,20,K1 Ca1 F3,8.874099,6.224743,6.272645949286234,89.60780971542357,90.0,90.0,mono,P2_1/m,0.0002878,-5.4929808435,-3.718699542449999,0.002026736999998,False,2.610411927823775,6.5991,True,346.4864821349556,,
mp-1105914,KCaH3,20,K1 Ca1 H3,6.311777,6.322585,8.933021,90.0,90.0,90.0,ortho,Pnma,6.75e-05,-5.163588946,-0.47920997800000004,0.036747629499999004,False,1.5315700399330652,3.3257,True,356.48780527248573,,
mp-1205722,KCaI3,10,K1 Ca1 I3,7.936552370782024,7.936552370782024,11.6910337,90.0,90.0,146.32668305829753,ortho,Cmcm,0.0,-3.3349183690000013,-1.7931168794500012,0.011525592999998,False,3.740660485811372,3.602399999999999,False,408.3048074953539,,
mp-982885,KCaO3,5,K1 Ca1 O3,4.568674,4.568674,4.568674,90.0,90.0,90.0,cubic,Pm-3m,3.0,-5.06711209,-1.470941566449999,0.43958229600000204,False,2.21451500197177,0.0,False,95.36093697143247,"{'voigt': 40.526, 'reuss': 40.526, 'vrh': 40.526}","{'voigt': 14.504, 'reuss': -7.407, 'vrh': 3.548}"
mp-23442,KCdCl3,20,K1 Cd1 Cl3,4.01365267,8.85064146,14.6107019,90.0,90.0,90.0,ortho,Pnma,0.0,-10.5851991,-1.6690854362499992,0.0,True,3.300056921895721,3.5095,False,519.0218184985106,,
mp-10175,KCdF3,5,K1 Cd1 F3,4.3820890200000004,4.3820890200000004,4.3820890200000004,90.0,90.0,90.0,cubic,Pm-3m,4e-07,-4.242006089999999,-2.676842726949999,0.025577015000002003,False,4.11453690974569,3.1006,False,84.14795913800039,"{'voigt': 55.986, 'reuss': 55.986, 'vrh': 55.986}","{'voigt': 23.683, 'reuss': 18.559, 'vrh': 21.121}"
mp-9628,KCdF3,20,K1 Cd1 F3,6.18108562,6.082090580000083,8.641368730000057,90.00001605081437,90.0,90.0,ortho,Pnma,0.0,-4.267583105,-2.702419741949999,0.0,True,4.263088622778992,3.3539,True,324.86294739739833,,
mp-1211584,KCdN3,5,K1 Cd1 N3,4.567068,4.567068,4.567068,90.0,90.0,90.0,cubic,Pm-3m,5.5322476,-9.104037024014426,1.597863703985575,1.7782300078124962,False,3.373522521045004,0.0,False,95.26040725410972,,
mp-1184992,KCdO3,5,K1 Cd1 O3,4.339857,4.339857,4.339857,90.0,90.0,90.0,cubic,Pm-3m,2.4844651,-4.111037796,-0.7239852104499991,0.402591434000001,False,4.053050969826186,0.0,False,81.73842379384307,,
mp-23022,KClO3,10,K1 Cl1 O3,5.701289,4.751184,7.23610403273488,70.72898769166345,90.0,90.0,mono,P2_1/m,0.000337299999999,-4.713488817,-1.148730937449999,0.050930346875003,False,2.199650261164601,5.4717,False,185.02780731565468,"{'voigt': 16.68, 'reuss': 14.859, 'vrh': 15.769}","{'voigt': 8.892, 'reuss': 7.021, 'vrh': 7.956}"
mp-550506,KClO3,5,K1 Cl1 O3,4.529572446804224,4.529572446804224,4.529572643726999,80.01503014214549,80.01503014214549,80.01502563547751,trig,R3m,0.0,-4.702425806,-1.13766792645,0.061993357875003006,False,2.28265342975124,5.0728,True,89.1498594092199,,
mp-556084,KClO3,20,K1 Cl1 O3,4.7366589999999995,5.719557,13.665051,90.0,90.0,90.0,ortho,Pnma,0.0018361,-4.7135123145,-1.14875443495,0.050906849375003005,False,2.198744989889655,5.5725,False,370.2079746001091,"{'voigt': 16.228, 'reuss': 15.233, 'vrh': 15.73}","{'voigt': 8.782, 'reuss': 7.712, 'vrh': 8.247}"
mp-1001793,KCoCl3,10,K1 Co1 Cl3,6.887999121847578,6.887999121847578,6.887999485328669,60.59571005533077,60.59571005533077,60.59570643317057,trig,R3c,6.0024189,-4.189181978,-1.42710269345,0.08774753341667,False,2.8984863099498632,0.0,False,234.1901016569457,,
mp-559946,KCoF3,5,K1 Co1 F3,4.105255,4.105255,4.105255,90.0,90.0,90.0,cubic,Pm-3m,3.0000145,-5.243563268000001,-2.44371859895,0.15907860199999901,False,3.720790320114673,0.0,False,69.18634945992444,,
mp-1184947,KCoO3,5,K1 Co1 O3,3.87397,3.87397,3.87397,90.0,90.0,90.0,cubic,Pm-3m,4.516772,-5.643307976,-1.021574084449999,0.289261467999999,False,4.170820658065728,0.0,False,58.13916092561977,,
mp-998397,KCrCl3,10,K1 Cr1 Cl3,7.00184001086643,7.00184001086643,7.001839671520621,60.36852346892906,60.36852346892906,60.36852728685503,trig,R3c,7.9978001,-9.520308605333332,-1.610524001583331,0.019871099999999,False,2.679273311196968,0.0,False,244.75224917350153,,
mp-998420,KCrCl3,5,K1 Cr1 Cl3,4.97792,4.97792,4.970616,90.0,90.0,90.0,tet,P4mm,4.0042189,-9.517487543333333,-1.6077029395833322,0.022692161999998003,False,2.661997693186819,0.0,False,123.17031129372425,,
mp-1180767,KCrF3,10,K1 Cr1 F3,5.8469319098321,5.8469319098321,5.8469319098321,118.2713750347546,118.2713750347546,93.02108625962023,tet,I4/mcm,7.9999994999999995,-6.231186697,-2.927415877949999,0.0021807369999990002,False,3.396139663724107,1.572,False,144.81653079525373,,
mp-1180782,KCrF3,10,K1 Cr1 F3,5.847078733580012,5.847078733580012,5.847078733580012,118.36052770560418,118.62221714987572,92.63364786886326,ortho,Ibam,7.9999994999999995,-6.231341194999999,-2.927570375949998,0.002026239,False,3.405717547651045,0.157399999999999,False,144.40926392615722,,
mp-555036,KCrF3,5,K1 Cr1 F3,4.219636,4.219636,4.219636,90.0,90.0,90.0,cubic,Pm-3m,4.0030434,-6.146849666,-2.84307884695,0.08651776799999901,False,3.273020451893828,0.0,False,75.13200290455114,,
mp-556365,KCrF3,10,K1 Cr1 F3,6.021007494476497,6.021007494476497,5.79612869205897,59.26580276800506,59.26580276800506,90.95246281379887,mono,C2/m,7.9999997,-6.233367434,-2.929596614949999,0.0,True,3.418906474957139,1.4898,False,143.85218425808222,,
mp-560547,KCrF3,10,K1 Cr1 F3,5.914091052270556,5.914091052270556,5.914091052270556,121.02082466621154,121.02082466621154,88.24079060605888,tet,I4/m,7.9999997,-6.22976257,-2.925991750949999,0.003604863999999,False,3.416883032739683,1.968,True,143.9373720095832,,
mp-566131,KCrF3,5,K1 Cr1 F3,4.09361,4.09361,4.600637,90.0,90.0,90.0,tet,P4/mmm,3.998912599999999,-6.206554186,-2.902783366949999,0.026813247999999002,False,3.189648218946756,0.7059000000000001,False,77.09583164614405,,
mp-1076732,KCrO3,5,K1 Cr1 O3,3.864733,3.864733,3.864733,90.0,90.0,90.0,cubic,Pm-3m,1.0000208,-6.79726811,-1.671608068449999,0.390394811666667,False,4.00124031772841,0.0,False,57.72427493335193,,
mp-1023129,KCuCl3,5,K1 Cu1 Cl3,4.79805545,4.79804927,4.79805133,90.0,90.0,90.0,cubic,Pm-3m,0.5088569,-8.324836616,-1.26036129025,0.030757296999999004,False,3.142008712791152,0.0,False,110.45741002736315,"{'voigt': 38.496, 'reuss': 38.496, 'vrh': 38.496}","{'voigt': 17.354, 'reuss': 17.246, 'vrh': 17.3}"
mp-27450,KCuCl3,20,K1 Cu1 Cl3,4.05982934346211,8.71618051100214,13.76344897,90.0,90.0,97.11185591635937,mono,P2_1/c,3.999999899999999,-8.355593913,-1.29111858725,0.0,True,2.872467970229371,0.268199999999999,False,483.28914131718824,,
mp-636978,KCuCl3,20,K1 Cu1 Cl3,14.372141,4.757822,9.830983692387095,89.24271193924933,90.0,90.0,mono,P2_1/c,4.0041687,-8.333649544,-1.269174218249999,0.021944368999999003,False,2.065254287127698,0.0684,False,672.1848188118263,,