mp_id,formula,sites,composition,a_edge (angstrom),b_edge (angstrom),c_edge (angstrom),alpha_ang (deg),beta_ang (deg),gamma_ang (deg),crystal_system,space_group,total_magnetisation (bohr),energy_per_atom (eV/atom),formation_energy (eV/atom),energy_above_hull (eV/atom),stable,density (g/cc),band_gap (eV),direct_bandgap,volume (cubic-angstrom),bulk_modulus (GPa),shear_modulus (GPa)
mp-1178549,AlVO3,20,Al1 V1 O3,4.881115204855291,9.44892760204783,4.881240366042364,75.04115013526125,119.99756213503001,104.9545990199866,trig,R-3,0.0009134,-8.495406463,-2.96073348,0.019815870624997,False,4.493987813890738,1.569,False,186.11277526267332,,
mp-1183128,AlVO3,5,Al1 V1 O3,3.640495,3.640495,3.640495,90.0,90.0,90.0,cubic,Pm-3m,1.998696799999999,-7.805885834,-2.271212851,0.709336499624997,False,4.333779068004552,0.0,False,48.24822233179429,,
mp-1248251,AlVO3,20,Al1 V1 O3,5.036054,5.052761,7.862989,90.0,90.0,90.0,ortho,Pnma,7.9999746,-8.363604847500001,-2.8289318645000012,0.151617486124996,False,4.18024054354719,1.679199999999999,False,200.08143917242444,,
mp-1384488,AlVO3,10,Al1 V1 O3,3.177693368274856,3.177693368274856,12.057972,90.0,90.0,119.99998684750364,hex_,P6_3/mmc,4.0006632,-8.18761932,-2.652946337,0.32760301362499705,False,3.965967440785815,0.0,False,105.4457148889399,,
mp-1395974,AlVO3,5,Al1 V1 O3,3.822983,3.822983,3.822983,90.0,90.0,90.0,cubic,Pm-3m,1.0714845,-7.286648706000001,-1.751975723000001,1.2285736276249961,False,3.742320545725786,0.0,False,55.87365738853553,,
mp-756082,AlVO3,20,Al1 V1 O3,5.057769000057832,5.2336910001059485,6.978992000065626,90.00048713712131,89.99993317735479,89.99945443438293,ortho,Pnma,7.9961203,-8.4287792535,-2.894106270500001,0.086443080124997,False,4.527394166218192,0.0,False,184.73950209166097,,
mp-765647,AlVO3,40,Al1 V1 O3,13.213679520845659,13.213679520845659,5.837209208276503,77.30273420799988,77.30273420799988,25.710582579784294,mono,Cm,16.0001087,-8.4264897375,-2.8918167545,0.08873259612499601,False,3.883271181455361,1.1677,True,430.7649427287126,,
mp-802021,AlVO3,40,Al1 V1 O3,5.83721,5.879806871499862,13.213206355832675,102.84629517992106,102.68481071224087,90.05662530015469,tri,P1,15.999242,-6.431849764000001,-0.8971767810000001,2.083372569624996,False,3.88327316373461,0.0,False,430.76472283781874,,
mp-1246403,AlWN3,20,Al1 W1 N3,6.041277347598354,5.536363467749024,11.22075316378798,96.04980210233035,114.79215552025448,92.22125818037671,tri,P-1,0.0001069,-17.727155352125,-0.629926407374998,0.32059491900000103,False,4.977853285650076,1.5971000000000002,False,337.3770936711151,,
mp-1046804,AlWO3,20,Al1 W1 O3,4.870761,5.936013,8.690316,90.0,90.0,90.0,ortho,Pnma,12.0013923,-8.653441592,-2.343923776999999,0.285851663249996,False,6.8419398364679544,0.8598999999999991,True,251.26224282870476,,
mp-1251647,AlWO3,30,Al1 W1 O3,5.603850468521978,5.603850468521978,11.993558,90.0,90.0,120.0000055314046,hex_,P6_3cm,5.990813,-8.391159648666667,-2.081641833666666,0.548133606583329,False,7.905803552138625,0.5902000000000001,False,326.1757904694498,,
mp-1400236,AlWO3,10,Al1 W1 O3,3.368787144397966,3.368787144397966,12.216701,90.0,90.0,119.99998319686733,hex_,P6_3/mmc,4.634897,-8.202397247,-1.892879432,0.736896008249996,False,7.158873612223846,0.0,False,120.06924844116422,,
mp-1417649,AlWO3,5,Al1 W1 O3,3.94423652,3.94423652,3.94423652,90.0,90.0,90.0,cubic,Pm-3m,0.0003073,-7.760853983999999,-1.451336168999998,1.178439271249997,False,7.004185538557308,0.0,False,61.36049434821571,,
mp-755240,AsAuO3,20,As1 Au1 O3,8.36058177303386,8.36058177303386,5.171513116006281,78.34997645882345,78.34997645882345,80.95886440639353,mono,C2/c,0.001227099999999,-5.632816046,-1.0752385365000001,0.11758776333333701,False,6.173253171712357,0.357699999999999,False,344.1840454762892,,
mp-27274,AsCF3,40,As1 C1 F3,10.713548,10.713548,6.487277,90.0,90.0,90.0,tet,P4_2/nmc,3.91e-05,-5.41354973875,-1.486904753249999,0.49251551625000006,False,2.56775635979426,3.3193,True,744.6103725149252,,
mp-29863,AsCl3O,20,As1 Cl3 O1,6.35824603,8.27020354195825,10.388061720647263,113.03358663845601,90.0,90.0,mono,P2_1/c,0.0,-4.188813654999999,-1.156074951499999,0.0,True,2.606670690721858,2.5284,False,502.69663632597803,,
mp-1214882,AuI3N,20,Au1 I3 N1,10.079424,7.625739,12.790862916056172,54.374842238475956,90.0,90.0,mono,P2_1/c,0.0,-2.2861935195000003,0.9506459985000001,1.13957598175,False,4.9178536772290045,0.0,False,799.1444318204444,,
mp-1189694,AuNCl3,20,Au1 N1 Cl3,11.143758,6.153686,9.884847283669131,53.28704614295773,90.0,90.0,mono,P2_1/c,3.9995076,-14.88213981975,0.7520656830000001,1.010642597499998,False,3.8788832031306573,0.0,False,543.3962325465467,,
mp-1183212,BAuO3,5,B1 Au1 O3,3.49667,3.49667,3.49667,90.0,90.0,90.0,cubic,Pm-3m,1.9985059,-5.260162976,-0.30073161883333305,1.327223233666666,False,9.934466602061132,0.0,False,42.75273889652396,,
mp-1183221,BIrO3,5,B1 Ir1 O3,3.415662,3.415662,3.415662,90.0,90.0,90.0,cubic,Pm-3m,0.0074702,-6.365849548,-0.293507754833333,1.6729221789166662,False,10.460284216710495,0.0,False,39.84966404394991,,
mp-1246423,BMoN3,20,B1 Mo1 N3,10.231831483368262,5.675402438181894,8.67290833930147,121.82705256775746,108.54570389946977,110.67168409958416,tri,P-1,0.000264099999999,-8.935687886,-0.42771286283333304,0.38113039279999905,False,3.192599605992423,1.0201,False,309.5160734435566,,
mp-984553,BOsO3,5,B1 Os1 O3,3.407419,3.407419,3.407419,90.0,90.0,90.0,cubic,Pm-3m,0.0104592,-6.7745640640000016,-0.22443562083333202,1.7791229256666612,False,10.45298164634174,0.0,False,39.56185275227554,"{'voigt': 286.217, 'reuss': 286.217, 'vrh': 286.217}","{'voigt': 106.039, 'reuss': 13.921, 'vrh': 59.98}"
mp-984554,BPbO3,5,B1 Pb1 O3,3.565976,3.565976,3.565976,90.0,90.0,90.0,cubic,Pm-3m,2.13e-05,-6.110985154,-1.063800782833333,1.079543921428576,False,9.741156187118827,0.0,False,45.34560992453003,"{'voigt': 205.691, 'reuss': 205.691, 'vrh': 205.691}","{'voigt': 94.71, 'reuss': -6.119, 'vrh': 44.295}"
mp-1183242,BPdO3,5,B1 Pd1 O3,3.428706,3.428706,3.428706,90.0,90.0,90.0,cubic,Pm-3m,1.7470208,-5.8971810520000005,-0.5565497328333321,1.218701723666666,False,6.806833934712135,0.0,False,40.30795288597972,,
mp-1183277,BPtO3,5,B1 Pt1 O3,3.447224,3.447224,3.447224,90.0,90.0,90.0,cubic,Pm-3m,0.3293837,-5.839233441999999,-0.320351820833332,1.507040760166672,False,10.291807458038486,0.0,False,40.96458071752925,,
mp-1183211,BSbO3,5,B1 Sb1 O3,3.520705,3.520705,3.520705,90.0,90.0,90.0,cubic,Pm-3m,0.0008078,-6.391039034,-1.260583828833333,1.014313077166669,False,6.870745471143401,1.4054,True,43.640418944934396,,
mp-753806,BSbO3,10,B1 Sb1 O3,4.84604,6.047189486156441,6.2208871377820385,80.97470390000646,68.56260546618202,66.6066540689254,tri,P-1,0.0001288,-7.357337273000001,-2.226882067833333,0.048014838166668,False,3.85086307904932,3.762,False,155.7272770647208,,
mp-755829,BSbO3,20,B1 Sb1 O3,5.020640338758792,5.020640338758792,13.024911846416849,82.23303086896726,82.23303086896726,102.27836135028072,mono,C2/c,0.000224,-7.358162672500001,-2.227707467333334,0.047189438666668006,False,3.828465813252713,3.7211,False,313.2766235360048,,
mp-1183194,BTeO3,5,B1 Te1 O3,3.542919,3.542919,3.542919,90.0,90.0,90.0,cubic,Pm-3m,0.0015565,-5.755480568,-0.822164432166666,1.249640724583329,False,6.960377106887915,0.0,False,44.47169373442934,,
mp-1013709,Ba3AsN,5,Ba3 As1 N1,6.186616,6.186616,6.186616,90.0,90.0,90.0,cubic,Pm-3m,0.0011882,-3.459798958,0.293266061499998,1.11721574405128,False,3.512761879547606,0.0,False,236.78788656758616,,
mp-1013734,Ba3AsN,5,Ba3 As1 N1,5.487585,5.487585,5.487585,90.0,90.0,90.0,cubic,Pm-3m,0.0005071,-4.495886798,-0.7428217785000001,0.08112790405128101,False,5.033434384021722,0.0,False,165.25088001816093,"{'voigt': 38.422, 'reuss': 38.422, 'vrh': 38.422}","{'voigt': 27.837, 'reuss': 26.749, 'vrh': 27.293}"
mp-1013586,Ba3AsP,5,Ba3 As1 P1,6.070904,6.070904,6.070904,90.0,90.0,90.0,cubic,Pm-3m,0.003398399999999,-3.851431508,-0.6829273324285711,0.34367354575001,False,3.8433956108279883,0.0,False,223.74848125104208,,
mp-1013711,Ba3AsP,5,Ba3 As1 P1,6.166984,6.166984,6.166984,90.0,90.0,90.0,cubic,Pm-3m,0.001277299999999,-3.668456264,-0.49995208842857103,0.5266487897500101,False,3.6665424793383323,0.0,False,234.54083393706426,,
mp-1013563,Ba3BiAs,5,Ba3 Bi1 As1,6.247728,6.247728,6.247728,90.0,90.0,90.0,cubic,Pm-3m,0.0028973,-3.687723917999999,-0.8243075855,0.16235035053846,False,4.738261035975427,0.0,False,243.874471775472,,
mp-1013716,Ba3BiAs,5,Ba3 Bi1 As1,6.55372712,6.55372712,6.55372712,90.0,90.0,90.0,cubic,Pm-3m,2.5e-05,-3.172408389999998,-0.30899205749999903,0.677665878538461,False,4.10506710546045,0.0,False,281.4913563156466,"{'voigt': 18.404, 'reuss': 18.404, 'vrh': 18.404}","{'voigt': 12.923, 'reuss': 5.443, 'vrh': 9.183}"
mp-1013549,Ba3BiN,5,Ba3 Bi1 N1,5.61211,5.61211,5.61211,90.0,90.0,90.0,cubic,Pm-3m,0.0005392,-4.389537518,-0.7924901430000001,0.056357219999997,False,5.965165266897355,0.0,False,176.75777433123696,"{'voigt': 35.813, 'reuss': 35.813, 'vrh': 35.813}","{'voigt': 25.71, 'reuss': 25.703, 'vrh': 25.706}"
mp-1013710,Ba3BiN,5,Ba3 Bi1 N1,6.61,6.61,6.61,90.0,90.0,90.0,cubic,Pm-3m,0.0009360999999990001,-2.978451112,0.618596262999999,1.4674436259999981,False,3.65087216507948,0.0,False,288.80478100000005,"{'voigt': 3.969999999999999, 'reuss': 3.969999999999999, 'vrh': 3.969999999999999}","{'voigt': 10.79, 'reuss': 2.879, 'vrh': 6.834}"
mp-567666,Ba3BiN,10,Ba3 Bi1 N1,7.72798537,7.727984756809015,6.77933811,90.0,90.0,119.99999361583004,hex_,P6_3/mmc,0.0,-4.445894737999998,-0.8488473629999981,0.0,True,6.014236453089481,0.6466000000000001,True,350.63115470065736,,
mp-1013691,Ba3BiP,5,Ba3 Bi1 P1,6.142485,6.142485,6.142485,90.0,90.0,90.0,cubic,Pm-3m,0.0003815,-3.857570977999999,-0.8450844469285711,0.101019504916662,False,4.671121769984158,0.0,False,231.7567082809899,,
mp-1013713,Ba3BiP,5,Ba3 Bi1 P1,6.54121913,6.54121913,6.54121913,90.0,90.0,90.0,cubic,Pm-3m,1.1200000000000001e-05,-3.163351585999998,-0.15086505492857002,0.795238896916663,False,3.867919333462223,0.0,False,279.8827255847095,"{'voigt': 18.193, 'reuss': 18.193, 'vrh': 18.193}","{'voigt': 12.817, 'reuss': 4.893, 'vrh': 8.855}"
mp-1013584,Ba3BiSb,5,Ba3 Bi1 Sb1,6.537631,6.537631,6.537631,90.0,90.0,90.0,cubic,Pm-3m,0.000198,-3.419603402,-0.664411328,0.336802108199997,False,4.413811907962978,0.0,False,279.42239633610365,"{'voigt': 20.003, 'reuss': 20.003, 'vrh': 20.003}","{'voigt': 14.112, 'reuss': 8.09, 'vrh': 11.101}"
mp-1013719,Ba3BiSb,5,Ba3 Bi1 Sb1,6.586375,6.586375,6.586375,90.0,90.0,90.0,cubic,Pm-3m,0.0003835,-3.285428436,-0.530236362,0.470977074199997,False,4.316539038767182,0.0,False,285.71915815502155,"{'voigt': 19.129, 'reuss': 19.129, 'vrh': 19.129}","{'voigt': 13.369, 'reuss': 6.52, 'vrh': 9.944}"
mp-17833,Ba3GeO,20,Ba3 Ge1 O1,7.57259814,7.72347163,10.83356778,90.0,90.0,90.0,ortho,Pnma,0.0,-4.505382821999999,-1.439800085999998,0.0,True,5.2479375796067345,0.15300000000000002,False,633.6201367693964,,
mp-13288,Ba3LiN,10,Ba3 Li1 N1,8.289066234133553,8.289066234133553,6.942235,90.0,90.0,120.000001868745,hex_,P6_3/mmc,1.3128980000000001,-3.5080692300000003,-0.307244143666667,0.027976386666667002,False,3.480601606762285,0.0,False,413.08664456492033,"{'voigt': 13.019, 'reuss': 12.7, 'vrh': 12.86}","{'voigt': -47880178945.086, 'reuss': 21.541, 'vrh': -23940089461.772}"
mp-8868,Ba3NaN,10,Ba3 Na1 N1,8.543396245443757,8.543394286117362,6.9863962700001565,90.00001886785277,89.99999685207577,120.00001878507781,hex_,P6_3/mmc,0.0054364,-3.419354647,-0.331969978275862,0.0,True,3.376438755251404,0.0,False,441.6159639223956,"{'voigt': -372228450.435, 'reuss': -379107348.269, 'vrh': -375667899.352}","{'voigt': 206177395.595, 'reuss': -18028.071, 'vrh': 103079683.762}"
mp-1013533,Ba3PN,5,Ba3 P1 N1,5.450725999999999,5.450725999999999,5.450725999999999,90.0,90.0,90.0,cubic,Pm-3m,6.290000000000001e-05,-4.538411764,-0.6362765459285711,0.139411427333334,False,4.685604401877897,0.0,False,161.94332566307529,"{'voigt': 40.54, 'reuss': 40.54, 'vrh': 40.54}","{'voigt': 28.14, 'reuss': 26.423, 'vrh': 27.282}"
mp-1013707,Ba3PN,5,Ba3 P1 N1,6.06005,6.06005,6.06005,90.0,90.0,90.0,cubic,Pm-3m,0.0002072,-3.644830316,0.25730490207142803,1.032992875333334,False,3.409573448524057,0.0,False,222.55052458545018,,
mp-29242,Ba3PbO,5,Ba3 Pb1 O1,5.52184574,5.52184574,5.52184574,90.0,90.0,90.0,cubic,Pm-3m,2.499999999999999e-06,-4.375894105999999,-1.492387526999997,0.0,True,6.264600434124797,0.0,False,168.36538573045777,,
mp-1013562,Ba3SbAs,5,Ba3 Sb1 As1,6.217785,6.217785,6.217785,90.0,90.0,90.0,cubic,Pm-3m,0.001674299999999,-3.765989691999999,-0.8547799735,0.22783895273846203,False,4.204541193613696,0.148699999999999,True,240.38485512129122,,
mp-1013714,Ba3SbAs,5,Ba3 Sb1 As1,6.492956,6.492956,6.492956,90.0,90.0,90.0,cubic,Pm-3m,0.000108399999999,-3.370630302,-0.45942058350000003,0.6231983427384621,False,3.692311515291748,0.0,False,273.7331402002433,"{'voigt': 19.616, 'reuss': 19.616, 'vrh': 19.616}","{'voigt': 13.958, 'reuss': 6.628, 'vrh': 10.293}"
mp-1013557,Ba3SbN,5,Ba3 Sb1 N1,5.573581,5.573581,5.573581,90.0,90.0,90.0,cubic,Pm-3m,5.25e-05,-4.51522533,-0.870384568999999,0.055228376999998004,False,5.253233546566202,0.0,False,173.14220782832547,,
mp-1013708,Ba3SbN,5,Ba3 Sb1 N1,6.52,6.52,6.52,90.0,90.0,90.0,cubic,Pm-3m,0.0007932999999990001,-3.173536555999999,0.47130420500000003,1.396917150999999,False,3.281609293133699,0.0,False,277.167808,"{'voigt': 17.51, 'reuss': 17.51, 'vrh': 17.51}","{'voigt': 11.561, 'reuss': 3.815, 'vrh': 7.688}"
mp-12814,Ba3SbN,10,Ba3 Sb1 N1,7.62952326,7.629524375506333,6.73699565,90.0,90.0,119.99999516344013,hex_,P6_3/mmc,0.0,-4.570453706999999,-0.9256129459999981,0.0,True,5.356336708477919,0.455499999999999,True,339.61884922232997,,
mp-1013712,Ba3SbP,5,Ba3 Sb1 P1,6.483458,6.483458,6.483458,90.0,90.0,90.0,cubic,Pm-3m,0.0032568999999990004,-3.363138898,-0.30285898092857,0.735752349916667,False,3.440789724829294,0.0,False,272.53363290988204,"{'voigt': 19.718, 'reuss': 19.718, 'vrh': 19.718}","{'voigt': 13.917, 'reuss': 6.092, 'vrh': 10.005}"
mp-1013737,Ba3SbP,5,Ba3 Sb1 P1,6.113177,6.113177,6.113177,90.0,90.0,90.0,cubic,Pm-3m,0.0002717,-3.942252384,-0.8819724669285711,0.156638863916667,False,4.104661299636232,0.299199999999999,True,228.4551282878871,,
mp-754940,Ba3SiO,5,Ba3 Si1 O1,5.423827,5.423827,5.423827,90.0,90.0,90.0,cubic,Pm-3m,6.93e-05,-4.4913292259999995,-1.265288455,0.05150425300000001,False,4.746344014997515,0.0,False,159.55759664725554,"{'voigt': 39.278, 'reuss': 39.278, 'vrh': 39.278}","{'voigt': 26.853, 'reuss': 26.659, 'vrh': 26.756}"
mp-755363,Ba3SiO,20,Ba3 Si1 O1,7.57657891,7.6982159,10.80878583,90.0,90.0,90.0,ortho,Pnma,0.0,-4.5428334790000005,-1.316792708000001,0.0,True,4.805034837985734,0.421699999999999,False,630.4347580643596,,
mp-29243,Ba3SnO,5,Ba3 Sn1 O1,5.50211613,5.50211613,5.50211613,90.0,90.0,90.0,cubic,Pm-3m,1.4e-06,-4.474396678000002,-1.531505142000002,0.0,True,5.450060049984021,0.0,False,166.567112694078,"{'voigt': 36.771, 'reuss': 36.771, 'vrh': 36.771}","{'voigt': 25.933, 'reuss': 25.872, 'vrh': 25.902}"
mp-1183283,BaAlO3,5,Ba1 Al1 O3,3.956852999999999,3.956852999999999,3.956852999999999,90.0,90.0,90.0,cubic,Pm-3m,0.9993112,-6.997089008,-2.895402251,0.16936120074999902,False,5.69066640911675,0.0,False,61.951203638108275,,
mp-1183287,BaAuO3,5,Ba1 Au1 O3,4.211679,4.211679,4.211679,90.0,90.0,90.0,cubic,Pm-3m,0.0004405,-5.472031942,-1.464683951,0.19831959500000002,False,8.49724724234547,0.0,False,74.70777290092101,,
mp-1214407,BaBO3,5,Ba1 B1 O3,3.773902,3.773902,3.773902,90.0,90.0,90.0,cubic,Pm-3m,0.9997743,-6.262393088,-1.573943142833333,1.253707967666654,False,6.059475020396386,0.0,False,53.74918146839155,,
mp-1183282,BaBeO3,5,Ba1 Be1 O3,3.894084,3.894084,3.894084,90.0,90.0,90.0,cubic,Pm-3m,2.0000789,-6.126401228000001,-2.025947064,0.5173108549999981,False,5.464991599896058,0.0,False,59.04946220190078,,
mp-1182285,BaBiO3,10,Ba1 Bi1 O3,12.788143417099997,4.244221820663359,7.686089291430981,119.85280282854696,144.65878277741248,62.14360353743344,tri,P1,3.5600000000000005e-05,-5.720806651,-1.5902281980000001,0.643198812999998,False,6.304104323338448,1.1031,False,207.72494216352482,,
mp-1227955,BaBiO3,5,Ba1 Bi1 O3,4.43647442073106,4.43647442073106,4.436474332445191,90.07361202983897,90.07361202983897,90.07362282475545,trig,R32,1.8700000000000004e-05,-6.34115627,-2.210577817,0.022849193999999,False,7.498409977429533,0.0,False,87.31982579640245,,
mp-22942,BaBiO3,10,Ba1 Bi1 O3,6.1683626341155815,6.168135863723597,6.189354802276848,60.528990975677715,60.11212973808673,59.998784254401485,mono,C2/m,0.0,-6.363988029999999,-2.233409576999999,1.743400000009387e-05,False,7.826831503984306,0.0,False,167.31160052336443,,
mp-23438,BaBiO3,10,Ba1 Bi1 O3,6.261625708878485,6.261625708878485,6.261625708878485,59.99999999999999,59.99999999999999,59.99999999999999,cubic,Fm-3m,0.0002449,-6.339119297,-2.208540844,0.024886166999999,False,7.543375453133814,0.0,False,173.5986381818341,"{'voigt': 109.77, 'reuss': 109.77, 'vrh': 109.77}","{'voigt': 59.055, 'reuss': 54.208, 'vrh': 56.631}"
mp-23482,BaBiO3,10,Ba1 Bi1 O3,6.15571811079635,6.155718112929547,6.155717888953331,60.657658492971834,60.65765859510502,60.65766008337923,trig,R-3,1e-07,-6.363170258999998,-2.232591805999997,0.0008352050000010001,False,7.823300896291097,0.0,False,167.38710722210985,,
mp-545783,BaBiO3,5,Ba1 Bi1 O3,4.428113,4.428113,4.428113,90.0,90.0,90.0,cubic,Pm-3m,0.0005044,-6.342794462,-2.212216009,0.021211001999999,False,7.540948198681999,0.0,False,86.82725775700082,,
mp-559051,BaBiO3,20,Ba1 Bi1 O3,6.17435169,6.217179421500493,8.718286879572384,90.2539552812684,90.0,90.0,mono,P2_1/c,0.0,-6.364005463999999,-2.233427010999999,0.0,True,7.825829472632553,0.0,False,334.66604672074277,"{'voigt': 106.395, 'reuss': 105.939, 'vrh': 106.167}","{'voigt': 49.941, 'reuss': 48.721, 'vrh': 49.331}"
mp-644369,BaBiO3,10,Ba1 Bi1 O3,4.331787999999999,6.284164336387774,7.5798519865438,81.14390836762212,73.44458823348961,81.43362507717329,tri,P1,0.0008315,-5.417050556,-1.286472103,0.946954907999998,False,6.742529468841822,0.10109999999999901,False,194.21786912608698,,
mp-27365,BaBiSe3,40,Ba1 Bi1 Se3,4.47920984,16.37637289,17.09756824,90.0,90.0,90.0,ortho,P2_12_12_1,0.0,-4.576548426749997,-1.3171996901562482,0.0,True,6.177229599398782,0.9943999999999991,False,1254.1615237266026,,
mp-1227982,BaCO3,5,Ba1 C1 O3,4.680706587878052,4.680706587878052,4.680706282139587,71.04357183705834,71.04357183705834,71.04357500007093,trig,R32,0.0003304,-7.83249692,-2.634192230499999,0.049050461000008004,False,3.6848332052866493,4.1409,False,88.92776224512441,,
mp-2506699,BaCO3,10,Ba1 C1 O3,5.31525123,4.5741218506886865,6.91392244231956,70.538483393663,90.0,90.0,mono,P2_1/m,0.0,-7.866087237000002,-2.667782547500002,0.015460144000005002,False,4.135037253633823,4.4437,False,158.4914239428948,"{'voigt': 53.929, 'reuss': 45.28, 'vrh': 49.604}","{'voigt': 24.649, 'reuss': 19.338, 'vrh': 21.994}"
mp-2626703,BaCO3,10,Ba1 C1 O3,4.18679167,5.46618774,7.29521311,90.0,90.0,90.0,ortho,Imm2,0.0,-7.837690544999999,-2.639385855499999,0.043856836000008004,False,3.9253764760918113,4.1754,False,166.95671010843782,"{'voigt': 50.706, 'reuss': 49.638, 'vrh': 50.172}","{'voigt': 20.841, 'reuss': 17.249, 'vrh': 19.045}"
mp-34195,BaCO3,10,Ba1 C1 O3,5.434419,4.657328,6.1523353921499595,76.3642405021718,90.0,90.0,mono,P2_1/m,0.0008527,-7.846187791,-2.647883101499999,0.035359590000007005,False,4.330839315732281,4.354299999999999,False,151.32585039685978,,
mp-4559,BaCO3,5,Ba1 C1 O3,4.316593125685401,4.316593091521252,4.316593730385369,77.02716604123593,77.02716971476346,77.02716943018886,trig,R3m,0.0,-7.859702646,-2.661397956499999,0.021844735000008,False,4.364283352094535,4.3635,False,75.0831109614839,,
mp-545643,BaCO3,10,Ba1 C1 O3,5.512938556431226,5.512938556431226,5.690802,90.0,90.0,120.00000667759896,hex_,P6_3/mmc,0.0003083,-7.777050586,-2.5787458965,0.10449679500000801,False,4.3753702711277125,3.976,False,149.78570995693735,,