mp_id,formula,sites,composition,a_edge (angstrom),b_edge (angstrom),c_edge (angstrom),alpha_ang (deg),beta_ang (deg),gamma_ang (deg),crystal_system,space_group,total_magnetisation (bohr),energy_per_atom (eV/atom),formation_energy (eV/atom),energy_above_hull (eV/atom),stable,density (g/cc),band_gap (eV),direct_bandgap,volume (cubic-angstrom),bulk_modulus (GPa),shear_modulus (GPa)
mp-1207629,YRhO3,20,Y1 Rh1 O3,5.22677739,5.75872435,7.58046239,90.0,90.0,90.0,ortho,Pnma,0.0,-8.290526322,-2.547069844999999,0.0,True,6.981031070639306,9.999999999976698e-05,True,228.16866006717177,,
mp-1340878,YSbO3,20,Y1 Sb1 O3,5.737096,6.044614,8.559337,90.0,90.0,90.0,ortho,Pnma,0.000918,-7.6891270590000005,-2.592731908,0.31327864574999903,False,5.788210895138803,0.7162000000000001,True,296.8252317901596,,
mp-1347073,YSbO3,30,Y1 Sb1 O3,6.523346559733355,6.523346559733355,12.653419,90.0,90.0,120.00000567678872,hex_,P6_3cm,1.5e-06,-7.762523985666666,-2.666128834666667,0.23988171908333303,False,5.526587137150414,1.4667000000000001,False,466.31501448263765,,
mp-1389035,YSbO3,10,Y1 Sb1 O3,3.7749987211952805,3.7749987211952805,12.859533,90.0,90.0,120.00001263944642,hex_,P6_3/mmc,0.0030697,-7.745969549,-2.649574398,0.25643615575,False,5.412847293303265,1.4299,False,158.70455487683046,,
mp-1416619,YSbO3,5,Y1 Sb1 O3,4.250393,4.250393,4.250393,90.0,90.0,90.0,cubic,Pm-3m,1.5700000000000002e-05,-7.006274104000001,-1.9098789530000002,0.9961316007499991,False,5.593683732708098,0.0,False,76.78692265678544,,
mp-1215924,YSbTe3,5,Y1 Sb1 Te3,4.350143314566314,4.350143,10.732970568805916,78.30784508724628,101.69215453344073,119.99999000366235,trig,R3m,4.8200000000000006e-05,-5.007397758000001,-0.9937956739999991,0.032254929750001,False,5.762561331501115,0.8608000000000001,True,171.01305685561616,,
mp-755165,YScO3,20,Y1 Sc1 O3,5.468448,5.76218,7.995899,90.0,90.0,90.0,ortho,Pnma,1.2600000000000001e-05,-9.469694941,-3.932606217,0.028696064749997002,False,4.794330594656989,4.4324,True,251.95223031798207,,
mp-768479,YScO3,10,Y1 Sc1 O3,3.590589866134671,3.590589866134671,12.444239,90.0,90.0,119.99999753342513,hex_,P6_3/mmc,0.0004144,-9.467514688,-3.9304259640000003,0.030876317749997002,False,4.346959576160271,3.2044,True,138.94105351591026,,
mp-769007,YScO3,30,Y1 Sc1 O3,6.174025801157947,6.174025664292534,12.194740750000042,89.99999271268793,90.00000341330802,120.00005296512194,hex_,P6_3cm,0.0,-9.478454808666667,-3.941366084666667,0.019936197083330002,False,4.50088173355385,3.1392,True,402.56854913574466,,
mp-7792,YScS3,20,Y1 Sc1 S3,6.38688086,7.00935017,9.52905468,90.0,90.0,90.0,ortho,Pnma,0.0,-13.438173158999998,-2.274756046687498,0.0018075120000020002,False,3.582017480182794,1.7758,False,426.59561875393587,,
mp-769404,YSeO3,40,Y1 Se1 O3,12.23956373,5.938537082372808,8.895160061932264,73.87316777711462,90.0,90.0,mono,P2_1/c,0.0,-7.469001202000004,-2.499224003468754,0.0,True,4.6169525512326075,1.836899999999999,False,621.1035251012897,,
mp-1068587,YSi3Ir,5,Y1 Si3 Ir1,5.714082086122427,5.714082086122427,5.714082086122427,137.13569197422402,137.13569197422402,62.229339366083664,tet,I4mm,1e-07,-7.101415782000001,-0.7767198280000011,0.0,True,7.112401624622182,0.0,False,85.30545894701842,,
mp-10284,YSi3Ni,10,Y1 Si3 Ni1,3.9161947361310316,3.96013567,10.65076275001476,90.0,100.59383678768891,90.0,ortho,Cmmm,2e-07,-6.351077851999999,-0.638041397999998,0.024345344000001,False,4.742509563434698,0.0,False,162.36362859836086,"{'voigt': 123.077, 'reuss': 117.055, 'vrh': 120.066}","{'voigt': 86.125, 'reuss': 84.533, 'vrh': 85.329}"
mp-1187862,YSiO3,5,Y1 Si1 O3,3.723507,3.723507,3.723507,90.0,90.0,90.0,cubic,Pm-3m,0.0010811,-8.15080226,-2.795143751,0.736387453416664,False,5.306999070894734,0.0,False,51.624579106919604,,
mp-1343054,YSnO3,20,Y1 Sn1 O3,5.932529,5.662117,10.265709039244197,56.89690747569488,90.0,90.0,mono,P2_1/c,9.800000000000001e-06,-7.845878460500001,-2.7733691865,0.20043593684375002,False,5.877643125660857,1.9502000000000002,False,288.862121719322,,
mp-1376465,YSnO3,30,Y1 Sn1 O3,6.427105940404125,6.427105940404125,12.576402999999999,90.0,90.0,119.99999938653083,hex_,P6_3cm,0.0872037,-7.867746203,-2.795236929,0.178568194343751,False,5.6606600237867895,0.0,False,449.90207595569206,,
mp-1394022,YSnO3,10,Y1 Sn1 O3,3.7105665036640967,3.7105665036640967,12.716999,90.0,90.0,120.0000089803397,hex_,P6_3/mmc,0.0018127,-7.855947505,-2.783438231,0.19036689234375,False,5.598454404220124,0.0,False,151.63367792256705,,
mp-1412687,YSnO3,5,Y1 Sn1 O3,4.14186,4.14186,4.14186,90.0,90.0,90.0,cubic,Pm-3m,4.68e-05,-7.235911880000001,-2.163402606,0.81040251734375,False,5.97375729057571,0.0,False,71.05362594266687,,
mp-989557,YTcN3,5,Y1 Tc1 N3,4.198095212471604,4.198095212471604,4.066441,90.0,90.0,123.16560638452025,ortho,Amm2,8.240000000000001e-05,-15.540123105041669,-0.807220100291669,0.06251445233333,False,6.33652924815243,0.0,False,59.9919085742968,,
mp-989640,YTcN3,20,Y1 Tc1 N3,7.388381680994153,7.388381680994153,6.269962993226117,72.79971743770655,72.79971743770655,82.27238098034948,mono,C2/c,0.0001346,-15.577394604541666,-0.8444915997916661,0.025242952833332003,False,4.874826380670623,0.0,False,311.92124900351655,,
mp-1216018,YThC3,20,Y1 Th1 C3,7.298962562042088,7.298962562042088,7.298962562042088,109.47122063449069,109.47122063449069,109.47122063449069,cubic,I2_13,0.0018388999999990002,-8.545786764499999,-0.223997518999999,0.05477661087500701,False,7.921120177777334,0.0,False,299.3377689721275,,
mp-1342458,YTiO3,30,Y1 Ti1 O3,6.0930293366066275,6.0930293366066275,12.01894,90.0,90.0,119.99999279672711,hex_,P6_3cm,3e-06,-9.455553118333333,-3.605859811999999,0.05487434991665,False,4.76399071046448,0.0,False,386.4233566548507,,
mp-1436662,YTiO3,5,Y1 Ti1 O3,3.89302,3.89302,3.89302,90.0,90.0,90.0,cubic,Pm-3m,0.0011034,-9.207710448,-3.358017141666667,0.30271702024998204,False,5.200236792322234,0.0,False,59.0010722886116,,
mp-1443298,YTiO3,10,Y1 Ti1 O3,3.5219601462607435,3.5219601462607435,12.110846,90.0,90.0,120.00000274748507,hex_,P6_3/mmc,0.4487968,-9.432454660000001,-3.582761353666667,0.07797280824998101,False,4.716708575643251,0.0,False,130.09900526231206,,
mp-4355,YTiO3,20,Y1 Ti1 O3,5.347706,5.717622,7.702009,90.0,90.0,90.0,ortho,Pnma,4.0079207,-9.452474175499999,-3.602780869166666,0.057953292749983,False,5.211419462472947,0.0,False,235.49787086691995,"{'voigt': 185.843, 'reuss': 182.691, 'vrh': 184.267}","{'voigt': 78.711, 'reuss': 77.266, 'vrh': 77.988}"
mp-753995,YTmO3,20,Y1 Tm1 O3,5.664251,5.922676,8.305271,90.0,90.0,90.0,ortho,Pnma,0.0,-9.1004170215,-3.933321822500001,0.08865059062499901,False,7.290992135474123,4.582000000000001,True,278.62127367824564,,
mp-766256,YTmO3,40,Y1 Tm1 O3,9.088931699634399,9.088931699634399,10.493816128626998,54.7357196185846,54.7357196185846,70.53574567533614,mono,C2,0.0,-9.18579231675,-4.018697117750002,0.0032752953749990003,False,7.030105820678192,4.1556,False,577.9217459824528,,
mp-768353,YTmO3,30,Y1 Tm1 O3,6.383788363406559,6.383788363406559,12.699695,90.0,90.0,120.00000376622513,hex_,P6_3cm,0.0007475,-9.112848489666666,-3.945753290666667,0.07621912245833301,False,6.798471705032728,3.1706,False,448.20930423084536,,
mp-1375509,YVO3,30,Y1 V1 O3,6.14666025251079,6.14666025251079,12.056513,90.0,90.0,120.00000271789533,hex_,P6_3cm,12.0000095,-9.272332514333334,-3.184956397333335,0.08072150666666801,False,4.7442820800307555,1.1014,True,394.4852380193316,,
mp-1402500,YVO3,10,Y1 V1 O3,3.5126696058619005,3.5126696058619005,12.419869,90.0,90.0,119.99999257659555,hex_,P6_3/mmc,3.9405715,-9.199071232,-3.111695115,0.153982789000002,False,4.700647872878923,0.0,False,132.7156948137553,,
mp-1504764,YVO3,5,Y1 V1 O3,3.863003,3.863003,3.995935,90.0,90.0,90.0,tet,P4/mmm,1.999408299999999,-8.999762156,-2.9123860390000003,0.35329186500000204,False,5.230961248124892,0.0,False,59.63050756183239,,
mp-18883,YVO3,20,Y1 V1 O3,5.274392604076551,5.659848680930874,7.512776292639201,89.92957947762497,90.00384683511821,90.00254288712853,ortho,Pnma,7.9999996,-9.353054021000002,-3.2656779040000012,0.0,True,5.563301518482908,0.0,False,224.27321131213782,,
mp-989407,YWN3,10,Y1 W1 N3,3.59485,6.01453,6.13574,90.0,90.0,90.0,ortho,Pmc2_1,1.899999999999999e-06,-20.996542954,-1.183013483250002,0.038582182500011004,False,7.879840413344933,1.515099999999999,False,132.66287878756367,,
mp-989576,YWN3,10,Y1 W1 N3,5.643129809794916,5.643129809794916,5.643130103698921,59.32152712864135,59.32152712864135,59.32152365469975,trig,R3c,0.000268599999999,-20.989185378000002,-1.175655907250004,0.045939758500008004,False,8.355694619600069,1.5404,False,125.10776915767165,,
mp-989609,YWN3,10,Y1 W1 N3,6.848800450446486,6.848800450446486,6.07064,90.0,90.0,150.70701761040425,ortho,Cmcm,0.0011388,-21.012681103,-1.199151632250001,0.022444033500011003,False,7.503255653673589,1.1259000000000001,False,139.32116428808015,"{'voigt': 149.474, 'reuss': 140.129, 'vrh': 144.802}","{'voigt': 72.377, 'reuss': 66.872, 'vrh': 69.624}"
mp-989615,YWN3,20,Y1 W1 N3,7.260720607277518,7.260720607277518,6.239089098844522,74.17254931165681,74.17254931165681,81.51557640784759,mono,C2/c,0.0,-21.0351251365,-1.2215956657500011,0.0,True,6.88886497570351,2.2798,False,303.4933381065926,,
mp-989617,YWN3,10,Y1 W1 N3,7.848330103544066,7.848330103544066,3.7636700000000003,90.0,90.0,139.1943684664446,ortho,Ama2,2.6e-06,-21.010788535,-1.197259064250002,0.02433660150001,False,6.900149604377458,1.412799999999999,False,151.49849982350327,,
mp-989645,YWN3,10,Y1 W1 N3,3.64212024,5.715582021136358,7.935036270161604,71.74001636380956,90.0,90.0,mono,P2_1/m,0.0,-21.015337968,-1.201808497250002,0.019787168500009,False,6.664109199482085,1.406699999999999,True,156.8645234238009,,
mp-1369924,YWO3,20,Y1 W1 O3,5.546253,5.907121,8.014148,90.0,90.0,90.0,ortho,Pnma,11.9986986,-9.5931023435,-2.7308813945,0.21914667675001,False,8.113996116039354,2.2586999999999993,True,262.56262280021065,,
mp-1375712,YWO3,30,Y1 W1 O3,6.2151537813870705,6.2151537813870705,12.631849,90.0,90.0,119.99999767289508,hex_,P6_3cm,15.874261,-9.422868965,-2.560648016,0.389380055250011,False,7.562364940003576,0.0,False,422.57259174608294,,
mp-1401965,YWO3,10,Y1 W1 O3,3.60857917590026,3.60857917590026,12.69004,90.0,90.0,119.99998489100577,hex_,P6_3/mmc,5.5214355,-9.407761546,-2.545540597,0.404487474250011,False,7.443403044832641,0.0,False,143.10874265346973,,
mp-1402304,YWO3,5,Y1 W1 O3,4.103411,4.103411,4.103411,90.0,90.0,90.0,cubic,Pm-3m,2.982423,-9.008857254,-2.146636305,0.8033917662500101,False,7.708549244752746,0.0,False,69.09315987921504,,
mp-1215965,YZrO3,40,Y1 Zr1 O3,9.078940373270937,9.078940373270937,9.078940373270937,109.57915614528777,109.42338031648335,109.41117961716239,ortho,I2_12_12_1,0.0019196999999990002,-9.583364237249999,-3.6032292082499993,0.12390962875833302,False,5.2606006344276395,0.5552,True,576.0795248103736,,
mp-766243,YZrO3,40,Y1 Zr1 O3,9.051403480655361,9.051403480655361,10.447881503828897,54.78788822853178,54.78788822853178,70.17659656807494,mono,C2,0.0008862999999990001,-9.6254433785,-3.6453083495,0.08183048750833201,False,5.304086945191579,0.42700000000000005,False,571.3564549400056,,
mp-1246464,Zn3SbN,10,Zn3 Sb1 N1,5.91422936,6.063679359277928,6.10398884,120.22015950856363,90.0,119.18797602870416,ortho,Imma,0.0,-12.093301714,0.22007312924999903,0.266113632749998,False,7.061088218026403,0.0,False,156.14831360063857,,
mp-14099,ZnAgF3,5,Zn1 Ag1 F3,4.073079,4.073079,4.073079,90.0,90.0,90.0,cubic,Pm-3m,7.699999999999999e-06,-9.861295724000005,-1.933807048500003,0.053571894,False,5.658775990415144,1.5852,False,67.57226876423228,,
mp-998537,ZnAgF3,10,Zn1 Ag1 F3,6.267512396630598,6.2675123963593675,6.2675124263592465,51.09539144828552,51.09539133564422,51.095407535800916,trig,R-3,0.0,-9.903888742,-1.976400066499998,0.010978876000006,False,5.559655034433154,1.3463,True,137.55397762368642,,
mp-971700,ZnAuO3,5,Zn1 Au1 O3,3.934248,3.934248,3.934248,90.0,90.0,90.0,cubic,Pm-3m,2.764914199999999,-4.029493814,-0.153992088999999,0.7912942535,False,8.463478774783361,0.0,False,60.89549963874947,"{'voigt': 98.68, 'reuss': 98.68, 'vrh': 98.68}","{'voigt': 13.029, 'reuss': -4.665, 'vrh': 4.182}"
mp-971704,ZnBO3,5,Zn1 B1 O3,3.378806,3.378806,3.378806,90.0,90.0,90.0,cubic,Pm-3m,0.017771699999999002,-5.595359675999999,-1.038755996833332,1.125581286166667,False,5.34742323855386,0.0,False,38.57356425344683,"{'voigt': 227.552, 'reuss': 227.552, 'vrh': 227.552}","{'voigt': 48.195, 'reuss': -56.994, 'vrh': -4.4}"
mp-1378105,ZnBiO3,20,Zn1 Bi1 O3,5.590447,5.6517859999999995,10.019024096211018,57.151333024128725,90.0,90.0,mono,P2_1/c,0.0048633,-5.510322412,-1.511590225,0.080627896,False,8.051848164377654,0.880799999999999,False,265.9450071380185,,
mp-971706,ZnBiO3,5,Zn1 Bi1 O3,3.911416,3.911416,3.911416,90.0,90.0,90.0,cubic,Pm-3m,0.000469399999999,-5.210530708,-1.211798521,0.380419599999999,False,8.945928088642482,0.0,False,59.84143837094604,"{'voigt': 152.502, 'reuss': 152.502, 'vrh': 152.502}","{'voigt': 60.566, 'reuss': 58.869, 'vrh': 59.718}"
mp-9812,ZnCO3,10,Zn1 C1 O3,5.660201745789809,5.660201978801024,5.660201416381631,48.55208898258983,48.55208756667257,48.552093819027974,trig,R-3c,0.0,-6.888936604000003,-1.822478180500002,0.0,True,4.456983341587755,3.5639000000000003,False,93.45393807406116,,
mp-10271,ZnCo3C,5,Zn1 Co3 C1,3.72687582,3.72706281,3.7269244500000003,90.0,90.0,90.0,cubic,Pm-3m,2.95169,-6.379973716,-0.0022418635000000004,0.020153372136363,False,8.154463015548307,0.0,False,51.76809967998051,"{'voigt': 227.96, 'reuss': 227.96, 'vrh': 227.96}","{'voigt': 117.952, 'reuss': 109.834, 'vrh': 113.893}"
mp-1369159,ZnCoO3,20,Zn1 Co1 O3,4.978133,5.032938,7.286572,90.0,90.0,90.0,ortho,Pnma,3.993265199999999,-5.8525985185,-1.205189849499999,0.177061809552631,False,6.270249704181289,0.0,False,182.56240000135162,,
mp-753026,ZnCoO3,20,Zn1 Co1 O3,6.420815165259003,6.420815165259003,5.091030031920948,84.76825135861566,84.76825135861566,83.87081622401986,mono,C2/c,4.0109548,-5.973560132,-1.326151463,0.05610019605263,False,5.526971835232615,0.21349999999999902,False,207.1137448730862,,
mp-758652,ZnCoO3,10,Zn1 Co1 O3,5.390801674782796,5.390801674782796,5.390801087539031,54.530401128748736,54.530401128748736,54.53040506661127,trig,R-3,1.956135999999999,-5.947583421,-1.300174752,0.082076907052631,False,5.92182722329932,0.0,False,96.65191092533513,,
mp-1341277,ZnCrO3,20,Zn1 Cr1 O3,5.105534017852491,5.127049013048636,7.646973042584497,90.00792296327013,90.00937750492726,89.9986894363993,ortho,Pnma,7.999496,-6.9905993775,-1.8392645584999991,0.139117740500003,False,5.48851766439863,0.024200000000000003,False,200.16963281443952,,
mp-1100778,ZnCuO3,5,Zn1 Cu1 O3,3.735141999999999,3.735141999999999,3.735141999999999,90.0,90.0,90.0,cubic,Pm-3m,0.1703835,-4.581666933999999,-0.541100275,0.607842441499999,False,5.638793192137559,0.0,False,52.11003339679049,,
mp-10266,ZnFe3C,5,Zn1 Fe3 C1,3.7728900000000003,3.7728900000000003,3.7728900000000003,90.0,90.0,90.0,cubic,Pm-3m,4.0122102,-7.167564614,0.012129932500000001,0.024618004833333002,False,7.573775786132459,0.0,False,53.705953329388564,,
mp-1373518,ZnFeO3,20,Zn1 Fe1 O3,5.156405,5.205407,7.588825,90.0,90.0,90.0,ortho,Pnma,16.0000001,-6.333410405,-1.418680838,0.16101712250000003,False,5.51908599048533,0.0,False,203.6930685207765,,
mp-755099,ZnFeO3,10,Zn1 Fe1 O3,5.497108043216997,5.497108043216997,5.49710760361274,55.65057930535887,55.65057930535887,55.65058377620757,trig,R-3,7.9938114,-6.380725602,-1.465996034999999,0.11370192550000001,False,5.322641210251818,0.0,False,105.60542373837738,,
mp-755535,ZnFeO3,20,Zn1 Fe1 O3,6.584160746261971,6.584160746261971,5.311600733242381,84.35940263395676,84.35940263395676,85.45456835206335,mono,C2/c,16.0011146,-6.3785908425,-1.4638612755,0.11583668500000001,False,4.942058599253891,0.0,False,227.47596740388872,,
mp-971733,ZnGaO3,5,Zn1 Ga1 O3,3.828184,3.828184,3.828184,90.0,90.0,90.0,cubic,Pm-3m,0.998386099999999,-4.974319698,-1.1479751685,0.7340746505000001,False,5.420391503207033,0.0,False,56.102008719176524,,
mp-1016930,ZnGeO3,5,Zn1 Ge1 O3,3.721961,3.721961,3.721961,90.0,90.0,90.0,cubic,Pm-3m,0.0003773,-5.555858568,-1.410527672,0.6149733300000051,False,5.9917927255139976,0.0,False,51.560302230755426,"{'voigt': 190.693, 'reuss': 190.693, 'vrh': 190.693}","{'voigt': 78.838, 'reuss': 75.026, 'vrh': 76.932}"
mp-1020631,ZnGeO3,10,Zn1 Ge1 O3,5.30977993537331,5.30977993537331,5.309780042139316,57.32585723119223,57.32585723119223,57.3258546971455,trig,R3c,0.000958,-6.039638132,-1.894307236,0.13119376600000401,False,6.219859986802644,1.3848999999999991,True,99.33942065803808,,
mp-8285,ZnGeO3,10,Zn1 Ge1 O3,5.524563003248764,5.524563003248764,5.52456281996983,54.33987945448512,54.33987945448512,54.3398793120072,trig,R-3,2.54e-05,-6.111723113,-1.9663922169999992,0.05910878500000401,False,5.97066705202391,2.1201,False,103.48547026309927,"{'voigt': 18544796811.253, 'reuss': 85825949.289, 'vrh': 9315311380.271}","{'voigt': -35945735341.801, 'reuss': 630505365.397, 'vrh': -17657614988.202}"
mp-1016926,ZnIrO3,5,Zn1 Ir1 O3,3.907016,3.907016,3.907016,90.0,90.0,90.0,cubic,Pm-3m,0.673495699999999,-5.698363244,-0.7099510830000001,0.7629442669999991,False,8.509445632291017,0.0,False,59.639716349152586,"{'voigt': 201.293, 'reuss': 201.293, 'vrh': 201.293}","{'voigt': 46.206, 'reuss': 45.716, 'vrh': 45.961}"
mp-1379617,ZnMoO3,20,Zn1 Mo1 O3,5.313914,5.338543,7.97055,90.0,90.0,90.0,ortho,Pnma,7.9991033,-7.232922127499999,-1.8430667804999992,0.08622597750000001,False,6.149654093556156,0.0,False,226.11301305390992,,
mp-1207389,ZnNF3,5,Zn1 N1 F3,3.996138,3.996138,3.996138,90.0,90.0,90.0,cubic,Pm-3m,2.4579736,-3.6371686480000003,-0.570676996499999,1.0912916085,False,3.54957837564461,0.0,False,63.814802922926106,,
mp-16290,ZnNi3C,5,Zn1 Ni3 C1,3.766253,3.766253,3.766253,90.0,90.0,90.0,cubic,Pm-3m,0.0017246,-5.6252232939999995,-0.059459465499999004,0.042528748500000005,False,7.879495611203689,0.0,False,53.42302453099387,,
mp-1069270,ZnNi3N,5,Zn1 Ni3 N1,3.72701343,3.72701343,3.72701343,90.0,90.0,90.0,cubic,Pm-3m,3.5e-06,-5.608231691999999,-0.22054541299999902,0.0,True,8.195022676786662,0.0,False,51.77056123443007,,
mp-1378884,ZnNiO3,20,Zn1 Ni1 O3,5.053746,5.156729,7.368083,90.0,90.0,90.0,ortho,Pnma,2.1e-06,-5.408729711,-1.031977049999999,0.187397397499999,False,5.953183158870451,0.0,False,192.01812681303318,,
mp-1016836,ZnOsO3,5,Zn1 Os1 O3,3.896879,3.896879,3.896879,90.0,90.0,90.0,cubic,Pm-3m,0.1581775,-6.425465258,-0.9592664469999991,0.5631337199999981,False,8.520269119854007,0.0,False,59.17670270509917,"{'voigt': 208.753, 'reuss': 208.753, 'vrh': 208.753}","{'voigt': 51.95, 'reuss': 49.439, 'vrh': 50.694}"
mp-3342,ZnPS3,10,Zn1 P1 S3,6.010460420599074,6.010460420599074,7.49258834648381,82.38528954544165,82.38528954544165,119.9964382041578,mono,C2/m,0.0001213,-8.900621561530604,-0.497086328813341,0.025522434530603003,False,2.829460589466883,1.98,False,226.03806418074143,"{'voigt': 27.382, 'reuss': 2.61, 'vrh': 14.996}","{'voigt': 16.619, 'reuss': 1.964999999999999, 'vrh': 9.292}"
mp-1078329,ZnPbO3,10,Zn1 Pb1 O3,5.516786621151392,5.516786621151392,5.822193786011077,61.72056132477442,61.72056132477442,59.999992550909184,trig,R3c,0.0,-5.436857545,-1.473602805999999,0.022545057999999,False,8.288778142141021,0.0,False,128.45820493772405,,
mp-1016880,ZnRhO3,5,Zn1 Rh1 O3,3.891291,3.891291,3.891291,90.0,90.0,90.0,cubic,Pm-3m,1.2274483,-5.378909364,-0.685322464999999,0.7624100169999991,False,6.096070583751542,0.0,False,58.92249507561895,"{'voigt': 161.218, 'reuss': 161.218, 'vrh': 161.218}","{'voigt': 3.338, 'reuss': 130.364, 'vrh': 66.851}"
mp-1348382,ZnSbO3,20,Zn1 Sb1 O3,8.063739,5.490532,5.559790099840101,88.33332231556025,90.0,90.0,mono,P2_1/m,0.000607,-5.708569843499999,-1.6620442704999991,0.16128341650000003,False,6.348342089104972,0.3548,False,246.05121608245983,,
mp-4682,ZnSeO3,20,Zn1 Se1 O3,5.135797,6.004009,7.8104890000000005,90.0,90.0,90.0,ortho,Pnma,0.00141,-5.360195821,-1.440288200468749,0.062141492750002005,False,5.305333672538702,3.444199999999999,False,240.8393292100707,,