mp_id,formula,sites,composition,a_edge (angstrom),b_edge (angstrom),c_edge (angstrom),alpha_ang (deg),beta_ang (deg),gamma_ang (deg),crystal_system,space_group,total_magnetisation (bohr),energy_per_atom (eV/atom),formation_energy (eV/atom),energy_above_hull (eV/atom),stable,density (g/cc),band_gap (eV),direct_bandgap,volume (cubic-angstrom),bulk_modulus (GPa),shear_modulus (GPa)
mp-752605,LiAgF3,20,Li1 Ag1 F3,6.797884998065795,6.797884998065795,6.060563827846383,87.76999929195111,87.76999929195111,87.05385101216355,mono,C2/c,0.000246299999999,-8.635636328500002,-2.012926891333335,0.051048566999998005,False,4.085859635628241,0.32280000000000003,False,279.29293651428355,,
mp-752699,LiAgF3,10,Li1 Ag1 F3,6.536792634497518,6.536792634497518,3.203465,90.0,90.0,106.0458693223102,ortho,Cmmm,0.0413624,-8.637460168500002,-2.014750731333335,0.049224726999998004,False,4.337327443111966,0.0,False,131.55010208325814,,
mp-752837,LiAgF3,20,Li1 Ag1 F3,5.494201720675443,5.640402479900703,8.381144232948685,90.09754484140525,92.56637796189145,89.77959479243898,mono,P2_1/c,3.9900000000000014e-05,-8.636492199000001,-2.013782761833334,0.050192696499999,False,4.398098142958342,0.0,False,259.4648183662874,,
mp-756821,LiAgF3,20,Li1 Ag1 F3,5.6199639999999995,5.270943,9.71852463013831,57.66862523908407,90.0,90.0,mono,P2_1/c,3.9996962,-8.613841329000001,-1.991131891833335,0.072843566499999,False,4.691161401956898,0.08850000000000001,False,243.25569683954285,,
mp-757915,LiAgF3,10,Li1 Ag1 F3,5.425231149401195,5.704325285699791,5.465485893784467,63.51467303749492,61.99838418838668,85.85289360888918,tri,P-1,2.0000359,-8.615471927500002,-1.9927624903333352,0.071212967999999,False,4.334303495050334,0.33739999999999903,False,131.64188169136736,,
mp-759066,LiAgF3,10,Li1 Ag1 F3,5.940808082433315,5.940808082433315,5.940807947942434,54.79419600416586,54.79419600416586,54.794207840833074,trig,R3c,1.974898,-8.626771491500001,-2.004062054333334,0.059913403999999004,False,4.379391745614569,0.0,False,130.2865559997593,,
mp-760151,LiAgF3,30,Li1 Ag1 F3,5.431358861653867,5.431358861653867,15.230729,90.0,90.0,120.00001049581903,hex_,P6_122,6.0017945,-8.630392996500001,-2.007683559333334,0.05629189899999901,False,4.399125791518082,0.23560000000000003,False,389.1063099468663,,
mp-1185313,LiAlO3,5,Li1 Al1 O3,3.709189,3.709189,3.709189,90.0,90.0,90.0,cubic,Pm-3m,1.999242999999999,-6.204398784,-2.104722441666666,0.37512621773333304,False,2.665668053423011,0.0,False,51.03133026460131,,
mp-559767,LiAsO3,20,Li1 As1 O3,5.220009521886722,6.847584681961518,6.8475855028821995,84.99740085006651,75.41080940008588,75.41081511068154,mono,C2/c,4.5999999999999975e-06,-6.233445392,-1.948859709166666,0.035774916999994,False,3.7639888989258443,2.9408000000000003,False,229.1600080770351,,
mp-9657,LiAsO3,10,Li1 As1 O3,5.462122368526257,5.4621236784222456,5.462122762241012,52.30117919652807,52.30117692579175,52.30117269929738,trig,R-3,0.0,-6.269220308999997,-1.9846346261666632,0.0,True,4.569008444596072,3.385799999999999,False,94.39200396968975,,
mp-1185302,LiBO3,5,Li1 B1 O3,3.307567,3.307567,3.307567,90.0,90.0,90.0,cubic,Pm-3m,0.0045717,-5.925629018,-1.2391894874999991,0.9669265611166771,False,3.017312033939476,0.0,False,36.18478119222366,,
mp-28613,LiBPt3,15,Li1 B1 Pt3,9.28120286,9.281202267260362,2.77546394,90.0,90.0,120.00000211262173,hex_,P-62m,0.0,-33.40461834933333,-0.5653760871666651,0.0,True,14.50827673871411,0.0,False,207.0497518104581,,
mp-1079676,LiBeH3,10,Li1 Be1 H3,4.9676569277810465,4.9676569277810465,5.14039118196897,80.94843896565413,80.94843896565413,46.20768972483085,mono,C2,0.0,-3.488323452999999,-0.321556443416666,0.007902647958333,False,0.6985636299496151,4.6523,False,90.21956436586642,,
mp-24342,LiBeH3,20,Li1 Be1 H3,4.394895,4.517409,6.276607,90.0,90.0,90.0,ortho,Pnma,0.0002117,-3.3899778135,-0.223210803916666,0.10624828745833301,False,1.011518520444171,2.705199999999999,False,124.61285701070099,,
mp-24817,LiBeH3,30,Li1 Be1 H3,6.012145482236206,6.142083001591624,6.783220281461355,104.00830139128445,97.2270864748298,90.37219756761883,tri,P-1,4e-07,-3.494190199333333,-0.327423189749999,0.0020359016250000002,False,0.7847706183063231,4.8947,False,240.92685775587546,,
mp-24818,LiBeH3,20,Li1 Be1 H3,4.699526,6.177876608220174,6.511961852045895,96.63601794858997,100.2255235869253,106.85435867511602,tri,P-1,9.400000000000001e-05,-3.490937505,-0.32417049541666604,0.005288595958333001,False,0.719270205437965,4.9681,False,175.24459069597393,,
mp-570218,LiBeH3,60,Li1 Be1 H3,6.15836315,6.029295392925909,13.185047896322757,82.38848833266141,90.0,90.0,mono,P2_1/c,0.0,-3.494229016833332,-0.327462007249999,0.001997084125,False,0.779269946586822,4.9184,False,485.255000416245,,
mp-977148,LiBeH3,30,Li1 Be1 H3,5.866831667151615,5.866831667151615,8.322583999999999,90.0,90.0,120.22448203673311,ortho,Cmcm,0.0010669,-3.489246482333333,-0.32247947275000005,0.006979618624999,False,0.763868701108905,4.4673,False,247.51939548406978,,
mp-977298,LiBeH3,20,Li1 Be1 H3,5.911691490548284,5.911691490548284,4.692281152252068,76.0184349909748,76.0184349909748,85.26266511559467,mono,C2/c,0.000152199999999,-3.478912667999999,-0.312145658416666,0.017313432958333,False,0.8165727778904701,4.5931999999999995,False,154.36249672370604,,
mp-982975,LiBeO3,5,Li1 Be1 O3,3.507241,3.507241,3.507241,90.0,90.0,90.0,cubic,Pm-3m,3.0302921,-5.445053,-1.346609250666667,0.5701234884285721,False,2.461513393735289,0.0,False,43.1416576665112,"{'voigt': 112.446, 'reuss': 112.446, 'vrh': 112.446}","{'voigt': 19.74, 'reuss': 12.761, 'vrh': 16.251}"
mp-29077,LiBiO3,40,Li1 Bi1 O3,4.94691395,8.88109117,10.77666513,90.0,90.0,90.0,ortho,Pccn,0.0,-5.7638669717500015,-1.6352989334166672,0.0,True,7.405010120314769,0.144299999999999,False,473.461939007118,,
mp-1197831,LiBrO3,40,Li1 Br1 O3,7.006457,7.012956,12.617017,90.0,90.0,90.0,ortho,Pbca,14.3152677,-4.20121256425,-0.523262080916666,0.253321242197368,False,2.8894279631486492,0.0,False,619.9494275575756,,
mp-1079781,LiCaAl3,10,Li1 Ca1 Al3,6.933798681813381,6.933798681813381,5.243784,90.0,90.0,120.00000650558398,hex_,P6_3/m,0.0004708,-5.748857459000001,0.175401561666666,0.472019099999998,False,1.9464701272078302,0.0,False,218.33223142664235,,
mp-1017626,LiCaF3,5,Li1 Ca1 F3,3.761244,3.761244,3.761244,90.0,90.0,90.0,cubic,Pm-3m,3.9e-06,-7.38210828,-3.622915531833333,0.18743932200000002,False,3.245990517842307,6.5153,False,53.210154981331215,"{'voigt': 79.537, 'reuss': 79.537, 'vrh': 79.537}","{'voigt': 50.218, 'reuss': 47.772, 'vrh': 48.995}"
mp-1079935,LiCaH3,10,Li1 Ca1 H3,5.119740479212301,5.119740479212301,5.119739574500348,61.18455606121195,61.18455606121195,61.18455605428198,trig,R-3c,0.0018013999999990002,-4.5324605175,-0.5743930540833321,0.021480728,False,1.705965896051878,2.5547,True,97.42053789603402,,
mp-975333,LiCaO3,5,Li1 Ca1 O3,3.77971,3.77971,3.77971,90.0,90.0,90.0,cubic,Pm-3m,3.0,-5.401248822,-1.649567669666667,0.348430505428571,False,2.921970902133616,0.0,False,53.99772204566962,,
mp-1185203,LiCdO3,5,Li1 Cd1 O3,3.761737,3.761737,3.761737,90.0,90.0,90.0,cubic,Pm-3m,3.0,-4.218561136,-0.6759979216666661,0.5380530354285711,False,5.220475318260051,0.0,False,53.231081072507145,,
mp-973613,LiCeO3,5,Li1 Ce1 O3,3.68336,3.68336,3.68336,90.0,90.0,90.0,cubic,Pm-3m,1.0025296,-7.08321141,-2.545260259666666,0.471113553,False,6.481479140444835,0.0,False,49.97266406711705,"{'voigt': 156.051, 'reuss': 156.051, 'vrh': 156.051}","{'voigt': 41.212, 'reuss': -5.663, 'vrh': 17.775}"
mp-759500,LiCoF3,15,Li1 Co1 F3,5.122774174059012,5.119782161072285,7.5687951499710975,89.54726029143356,90.24117510890424,120.17231525355228,tri,P1,9.0000002,-5.5396866880000015,-2.584331390166667,0.08800685599999901,False,3.566730687263,2.833,False,171.61047271394716,,
mp-764370,LiCoF3,15,Li1 Co1 F3,5.1336972349901,5.1336972349901,7.547379,90.0,90.0,119.99999014109198,trig,P3,9.0000001,-5.5390119680000005,-2.583656670166667,0.08868157600000001,False,3.553258206453398,3.0432,False,172.2611484222777,,
mp-1185311,LiCrO3,5,Li1 Cr1 O3,3.678979,3.678979,3.678979,90.0,90.0,90.0,cubic,Pm-3m,1.0006766,-6.947906294000001,-1.666735623666667,0.40936655516666304,False,3.566056855697144,0.0,False,49.7945631362843,,
mp-752701,LiCuF3,20,Li1 Cu1 F3,5.174564,5.283253896784158,7.918842471817519,88.59963804485297,87.06488841646421,85.81429906444791,tri,P-1,0.0051284,-6.8689440085,-2.348050800333333,0.017969335500000003,False,3.9277656678150343,0.15479999999999902,False,215.58230020891193,,
mp-753405,LiCuF3,20,Li1 Cu1 F3,9.65586736,3.2061974544666016,7.5035043356889215,74.43748307647184,90.0,90.0,mono,P2_1/c,3.999999899999999,-6.854987138,-2.334093929833333,0.031926205999999,False,3.783852118700578,0.523699999999999,False,223.78167295817707,,
mp-758052,LiCuF3,10,Li1 Cu1 F3,5.4358528574933604,5.4358528574933604,5.435851727982949,55.121235956259625,55.121235956259625,55.12123193373336,trig,R3c,2.0,-6.84734186,-2.326448651833333,0.039571483999999005,False,4.204759305576492,0.0,False,100.69027687579656,,
mp-760814,LiCuF3,20,Li1 Cu1 F3,5.091637698792403,5.091637698792403,8.761179,90.0,90.0,93.22139186459115,ortho,Amm2,3.9979398,-6.814325506,-2.2934322978333332,0.072587837999999,False,3.733945052103344,0.0,False,226.77268827836045,,
mp-761262,LiCuF3,20,Li1 Cu1 F3,4.999326,5.264514478252671,8.600587986246405,89.96622443170915,89.73426473325692,89.97557766558496,tri,P1,4.0005075,-6.8574263470000005,-2.336533138833334,0.029486996999999,False,3.740808975143978,0.4097,True,226.35658836777884,,
mp-761897,LiCuF3,30,Li1 Cu1 F3,5.05690681358763,5.05690681358763,14.611702,90.0,90.0,120.00001064415956,hex_,P6_122,6.0015743,-6.845515819666667,-2.324622611499999,0.041397524333333005,False,3.925081124303655,0.7299,False,323.59462028929926,,
mp-1185308,LiDyO3,5,Li1 Dy1 O3,3.674686,3.674686,3.674686,90.0,90.0,90.0,cubic,Pm-3m,1.997817899999999,-6.5320599999999995,-2.2578237179999983,0.41252842821428604,False,7.276562009900035,0.0,False,49.620450663239936,,
mp-1185310,LiErO3,5,Li1 Er1 O3,3.655434999999999,3.655434999999999,3.655434999999999,90.0,90.0,90.0,cubic,Pm-3m,1.9999748,-6.500061525999999,-2.235956587666665,0.46041971721428704,False,7.553920963942889,0.0,False,48.84467197755944,,
mp-541365,LiEuH3,5,Li1 Eu1 H3,3.71667895,3.71671165,3.71667895,90.0,90.0,90.0,cubic,Pm-3m,7.0000002,-10.877417942,-0.622832675583332,0.0,True,5.237261796818454,0.0,False,51.341548704283774,"{'voigt': 47.287, 'reuss': 47.287, 'vrh': 47.287}","{'voigt': 49.931, 'reuss': 49.912, 'vrh': 49.922}"
mp-1185344,LiEuO3,5,Li1 Eu1 O3,3.763455999999999,3.763455999999999,3.763455999999999,90.0,90.0,90.0,cubic,Pm-3m,4.0085695,-7.397550944,-1.989367384666667,0.401048150214285,False,6.445487587073693,0.0,False,53.30408940567633,,
mp-1097043,LiFeF3,10,Li1 Fe1 F3,5.590433932795647,5.590433932795647,5.590433932795647,119.2797474221684,119.2797474221684,91.25210787082067,tet,I4/mcm,8.0001461,-5.86642065,-2.643744454166666,0.17792755499999902,False,3.186075112779744,2.7983000000000002,False,124.85667848041922,,
mp-1176698,LiFeF3,10,Li1 Fe1 F3,5.166437228783294,5.075889529857994,4.8318590515704205,89.90787176711768,89.96065389269737,120.75205582054427,ortho,C222_1,7.9997498,-6.008428476,-2.7857522801666663,0.035919728999999005,False,3.653104740154128,3.7201999999999993,False,108.89442933246478,,
mp-1176705,LiFeF3,20,Li1 Fe1 F3,6.293344583312915,6.293344583312915,6.453069,90.0,90.0,109.27506137680447,ortho,Cmcm,15.9999711,-5.9753444875,-2.752668291666666,0.069003717499999,False,3.297781585516887,3.4694000000000003,True,241.2547621212186,,
mp-1176706,LiFeF3,20,Li1 Fe1 F3,4.927426,6.446867,7.373944,90.0,90.0,90.0,ortho,Pbcm,15.9999863,-6.0108924555,-2.788216259666666,0.033455749499998,False,3.396480508441938,0.006900000000000001,False,234.24409766643373,,
mp-1176707,LiFeF3,30,Li1 Fe1 F3,7.021042,7.236590736679946,7.874954740365051,94.44735983650628,102.93816258383757,90.09398880334612,tri,P-1,24.0001098,-5.971748182333333,-2.749071986499999,0.072600022666666,False,3.070196774366624,3.4609,False,388.7074202788242,,
mp-1176709,LiFeF3,20,Li1 Fe1 F3,6.132567,6.132567,6.132567,90.0,90.0,90.0,cubic,P2_13,15.9994917,-5.988241201999999,-2.765565006166666,0.056107003,False,3.449616990113951,3.6062000000000003,True,230.63589790451795,,
mp-1176718,LiFeF3,30,Li1 Fe1 F3,6.555608,6.67508822618046,8.804832426152187,90.58382741874546,104.57472788580466,96.80973418076593,tri,P-1,24.0000001,-5.961999351666667,-2.739323155833333,0.082348853333332,False,3.225930081540101,3.1318,True,369.94238490831424,,
mp-1176724,LiFeF3,90,Li1 Fe1 F3,6.911964,7.973585854565372,21.267150745160315,83.01047848593352,82.8873462502355,89.0644811593116,tri,P-1,14.0,-5.853118423555555,-2.630442227722222,0.19122978144444402,False,3.101278254808035,3.0341,False,1154.4352068978933,,
mp-1407616,LiFeF3,10,Li1 Fe1 F3,6.3042643672703,6.3042643672703,3.235396,90.0,90.0,109.59525546128859,ortho,Cmmm,0.000106699999999,-5.47717066,-2.254494464166666,0.5671775449999991,False,3.283834912213861,4.2544,True,121.13969386561502,,
mp-1446564,LiFeF3,10,Li1 Fe1 F3,5.069674022114242,5.069674022114242,4.831859,90.0,90.0,118.73318338055432,hex_,P6_322,4e-07,-5.629792561,-2.407116365166666,0.41455564399999906,False,3.653080959932786,4.386699999999999,False,108.89513819538375,,
mp-754051,LiFeF3,10,Li1 Fe1 F3,5.701385926891285,5.701385926891285,5.70138510362254,53.97861217203592,53.97861217203592,53.97861544868705,trig,R-3,7.9992753,-5.797996269,-2.575320073166666,0.24635193599999902,False,3.532436708983564,0.010699999999999,True,112.61426282858187,,
mp-754581,LiFeF3,20,Li1 Fe1 F3,3.031441,7.838957,9.990446,90.0,90.0,90.0,ortho,Pnma,15.999948,-5.9623874185,-2.7397112226666662,0.08196078649999901,False,3.351239793061623,3.3554,False,237.40632156159822,,
mp-754707,LiFeF3,20,Li1 Fe1 F3,7.093731828177394,7.093731828177394,5.7157252765731315,73.83625029076585,73.83625029076585,79.4216984844139,mono,C2/c,16.0002418,-5.9850982385,-2.762422042666666,0.059249966499999,False,3.018560509767178,3.4248,False,263.5711655828217,,
mp-754816,LiFeF3,20,Li1 Fe1 F3,5.33027,5.353386,7.896101,90.0,90.0,90.0,ortho,Pnma,16.0000017,-6.004866095,-2.7821898991666663,0.039482109999999,False,3.531078082714771,3.5148,True,225.31518513743333,,
mp-754994,LiFeF3,20,Li1 Fe1 F3,7.032361409108963,7.032361409108963,5.7906317700821734,72.2965983064842,72.2965983064842,67.6428745087026,mono,C2/c,15.9980867,-5.9892529585,-2.766576762666666,0.055095246499999,False,3.228068788959483,3.2461,False,246.4648568403223,,
mp-755103,LiFeF3,20,Li1 Fe1 F3,6.542068769094376,6.542068769094376,5.871889330180959,87.43974464508831,87.43974464508831,79.16659610483757,mono,C2/m,15.99956,-5.9467939385,-2.724117742666666,0.097554266499999,False,3.228719336386945,3.1784,True,246.41519718834505,,
mp-755136,LiFeF3,10,Li1 Fe1 F3,5.075314974344056,5.075314974344056,7.169032,90.0,90.0,146.23844267251053,ortho,Cmcm,7.9961779,-5.956579181,-2.733902985166666,0.087769023999999,False,3.876245026378006,3.5861,False,102.62580235865941,,
mp-755179,LiFeF3,10,Li1 Fe1 F3,5.809004,4.040656,5.567039021739025,70.19480646404551,90.0,90.0,mono,P2_1/m,8.0004811,-5.9435948100000005,-2.720918614166666,0.10075339499999901,False,3.2357097008499,3.2084,False,122.94142328847299,,
mp-755575,LiFeF3,20,Li1 Fe1 F3,3.057776,5.393067999999999,14.687126,90.0,90.0,90.0,ortho,Pnma,16.0089028,-5.948791043,-2.726114847166666,0.095557161999999,False,3.284879165972766,3.468,False,242.2023678018626,,
mp-756109,LiFeF3,20,Li1 Fe1 F3,5.04873,5.328972999999999,8.092654,90.0,90.0,90.0,ortho,Pnma,15.9999988,-5.9810104775,-2.758334281666666,0.06333772749999901,False,3.654106030503097,3.518499999999999,True,217.7291806259034,,
mp-756113,LiFeF3,20,Li1 Fe1 F3,5.502934,6.582029029338066,6.8948865946354045,83.31857512875048,83.66283367451794,83.84485465107282,tri,P-1,16.0000894,-6.000458599,-2.777782403166667,0.043889605999999005,False,3.242142409239521,0.0,False,245.39499242053014,,
mp-760354,LiFeF3,15,Li1 Fe1 F3,5.204578,5.210010537139921,7.6601171991196715,89.86489197917523,89.88291935520535,60.36033268324217,tri,P1,12.0,-5.952500942,-2.729824746166666,0.09184726299999901,False,3.3052539106286822,3.2235,False,180.53201057788374,,
mp-761166,LiFeF3,10,Li1 Fe1 F3,5.264507364710586,5.264507364710586,5.586626320684515,62.53720544157082,62.53720544157082,59.641666500753985,mono,Cc,7.9999237999999995,-6.02037269,-2.797696494166666,0.023975514999999004,False,3.515258571604987,3.5869,False,113.16457889730091,,
mp-775760,LiFeF3,50,Li1 Fe1 F3,6.967106,7.915190558093342,12.149219462436795,106.14843099791432,94.38548247456677,90.63333498969554,tri,P-1,40.0001018,-5.9597592778,-2.737083081966667,0.08458892719999901,False,3.101551754635288,3.1951,False,641.2963371903874,,
mp-776017,LiFeF3,40,Li1 Fe1 F3,5.742143,9.248487,10.062567,90.0,90.0,90.0,ortho,Pbcn,32.000102,-5.9937186855,-2.771042489666666,0.050629519499999005,False,2.9776544648279293,3.4207,True,534.3840404179251,,
mp-776026,LiFeF3,40,Li1 Fe1 F3,8.811519,8.811519,6.203392,90.0,90.0,90.0,tet,P4_2/n,32.0000638,-5.94305345475,-2.720377258916667,0.10129475024999901,False,3.3036725074953512,3.2462,False,481.6491405467986,,
mp-776027,LiFeF3,40,Li1 Fe1 F3,8.732069,8.732069,6.210444,90.0,90.0,90.0,tet,P4_2/n,31.9999475,-5.9517590205,-2.729082824666666,0.092589184499999,False,3.360243976257419,3.162,False,473.5403247878109,,
mp-776077,LiFeF3,40,Li1 Fe1 F3,8.980068,5.672869,10.267383511056456,75.33245016640721,90.0,90.0,mono,P2_1/c,0.0,-6.003502576,-2.780826380166666,0.040845628999999,False,3.144665464842284,3.3838,True,506.00327496617444,,
mp-776080,LiFeF3,40,Li1 Fe1 F3,4.990726,8.719738,10.589535,90.0,90.0,90.0,ortho,Pccn,31.9998126,-6.01597288775,-2.793296691916667,0.028375317249999,False,3.452897813698414,3.6432,False,460.83351136849024,,
mp-776524,LiFeF3,70,Li1 Fe1 F3,6.898029,7.909536889469888,16.50510541411381,91.42679110108602,96.53777707914102,90.86812596540871,tri,P-1,55.9999976,-5.967386935857143,-2.744710740023809,0.076961269142856,False,3.113943940154512,2.624,False,894.2419469688558,,
mp-776604,LiFeF3,60,Li1 Fe1 F3,5.801413,5.814777649481878,23.269518374014126,89.96246625034598,89.95894414770427,60.459807524078485,tri,P-1,47.999834,-5.9768614095,-2.7541852136666662,0.067486795499998,False,3.494947166682819,2.223799999999999,False,682.9335100050309,,
mp-777470,LiFeF3,30,Li1 Fe1 F3,12.298738472409681,12.298738472409681,12.298737976757005,27.457281924034653,27.457281924034653,27.457281692956304,trig,R-3c,24.0003193,-5.831450833000001,-2.608774637166667,0.212897371999998,False,3.41889765117658,3.566499999999999,False,349.0622971710539,,
mp-777489,LiFeF3,30,Li1 Fe1 F3,8.814018323921275,8.814018323921275,8.814018045525662,111.757920825054,111.757920825054,111.75792294515924,trig,R-3,24.0000717,-5.951899718333333,-2.729223522499999,0.09244848666666601,False,2.500295011604103,3.2182,False,477.3069827255176,,
mp-777522,LiFeF3,10,Li1 Fe1 F3,7.539563427670067,7.539563427670067,5.022894,90.0,90.0,155.80690851272416,ortho,Cmc2_1,8.0000681,-6.021427504,-2.798751308166666,0.022920700999999002,False,3.3996608298925333,3.467,False,117.0124832668619,,
mp-777622,LiFeF3,20,Li1 Fe1 F3,5.272201,5.367768326891633,10.055078418269298,95.35879638969111,100.39341786575096,118.91149968749674,tri,P1,16.0,-5.9928160375,-2.770139841666666,0.051532167499999004,False,3.321182474373279,3.4526,False,239.5548928975201,,
mp-777672,LiFeF3,10,Li1 Fe1 F3,3.235396,6.303753057554285,6.304775740981277,70.40473938330341,89.8016064784141,89.81444460581658,ortho,Amm2,7.9999212,-5.9752016050000005,-2.752525409166666,0.069146599999998,False,3.2838626749914113,3.2093,True,121.13866971366161,,
mp-777683,LiFeF3,80,Li1 Fe1 F3,10.575643462166877,10.575643462166877,10.575643462166877,108.72611642421805,108.72611642421805,110.97193262304783,tet,I4_1/a,64.000334,-5.935950602,-2.713274406166666,0.10839760299999901,False,3.496901830163137,3.1492,False,910.0690274790987,,