mp_id,formula,sites,composition,a_edge (angstrom),b_edge (angstrom),c_edge (angstrom),alpha_ang (deg),beta_ang (deg),gamma_ang (deg),crystal_system,space_group,total_magnetisation (bohr),energy_per_atom (eV/atom),formation_energy (eV/atom),energy_above_hull (eV/atom),stable,density (g/cc),band_gap (eV),direct_bandgap,volume (cubic-angstrom),bulk_modulus (GPa),shear_modulus (GPa)
mp-1187655,TmGeO3,5,Tm1 Ge1 O3,3.887070999999999,3.887070999999999,3.887070999999999,90.0,90.0,90.0,cubic,Pm-3m,0.0005432,-7.096192958,-2.306310488000002,0.753880910374999,False,8.187265194775403,0.0,False,58.73100332958047,,
mp-1101263,TmInO3,20,Tm1 In1 O3,5.459972,5.787809,8.290247,90.0,90.0,90.0,ortho,Pnma,6.55e-05,-7.372834516,-2.955722868333334,0.08634727724999901,False,8.411016415747941,2.525899999999999,True,261.98237593932004,,
mp-1232191,TmMgS3,20,Tm1 Mg1 S3,7.570401534234495,11.56177,7.124359098930724,90.0,125.36276449432538,90.0,mono,C2/m,3.9990781,-5.2532537855,-1.547643745999999,0.326130793600004,False,3.780452325442813,0.2669,False,508.5283680800948,,
mp-1232251,TmMgS3,30,Tm1 Mg1 S3,6.624112,6.624111766594598,17.882397,90.0,90.0,120.00000116558853,trig,R-3,4.3278918,-5.343182042333334,-1.6375720028333332,0.23620253676667002,False,4.243639980131971,0.0,False,679.5347604872387,,
mp-1238772,TmMgS3,10,Tm1 Mg1 S3,6.9652932183523335,6.9652932183523335,6.621720832029239,76.52364243172305,76.52364243172305,118.69260436050625,mono,C2/m,0.0006820999999990001,-5.217558768,-1.5119487285000002,0.361825811100004,False,3.835026800798248,0.0,False,250.64586918426204,,
mp-1232151,TmMgSe3,10,Tm1 Mg1 Se3,7.342587472996151,7.342587472996151,6.919449878688695,76.46676671231353,76.46676671231353,120.12718102670325,mono,C2/m,6.0999999999999975e-06,-4.70163947,-1.381498284406251,0.327320873749999,False,5.012409319602381,0.0,False,284.98460758459646,,
mp-1232198,TmMgSe3,30,Tm1 Mg1 Se3,6.869924,6.869924254552229,19.13125,90.0,90.0,119.99999877429218,trig,R-3,1.3145223,-4.820539726000001,-1.500398540406251,0.208420617749998,False,5.480388192868671,0.0,False,781.9479858337598,,
mp-554211,TmMnO3,30,Tm1 Mn1 O3,6.05319656711558,6.0531965671155925,11.35090639000002,90.00000039710702,90.00000095347431,119.99987198194589,hex_,P6_3cm,23.9999996,-8.795841926000001,-3.098161968586209,0.0,True,7.520229139533666,0.0,False,360.1896989084128,,
mp-554270,TmMnO3,20,Tm1 Mn1 O3,5.270793,5.812419,7.453871,90.0,90.0,90.0,ortho,Pnma,16.0021105,-8.7547630775,-3.057083120086209,0.041078848500001,False,7.907812370132415,2.007599999999999,True,228.35721964620046,,
mp-1079044,TmNiGe3,10,Tm1 Ni1 Ge3,10.886632860005925,10.886632860005925,4.04046509,90.0,90.0,158.6391793448414,ortho,Cmmm,5e-07,-5.363585775999999,-0.537241431,0.005338511499999,False,8.483342855503953,0.0,False,174.42398003641927,,
mp-1106304,TmNiO3,20,Tm1 Ni1 O3,5.531035,5.158772,9.011673264947083,55.34947931298707,90.0,90.0,mono,P2_1/c,4.0001937,-7.548522843000001,-2.527218608000002,0.006301209416666001,False,8.65492732731107,0.0,False,211.52687155397024,,
mp-19002,TmNiO3,20,Tm1 Ni1 O3,5.08094633,5.49113582,7.30375113,90.0,90.0,90.0,ortho,Pnma,4.000001,-7.54801587,-2.526711635000001,0.006808182416667001,False,8.98413381710249,0.0,False,203.77587181393056,,
mp-10714,TmRh3C,5,Tm1 Rh3 C1,4.12603139,4.12603139,4.12603139,90.0,90.0,90.0,cubic,Pm-3m,7e-07,-7.699515970000002,-0.5386978535000051,0.0,True,11.575703473844454,0.0,False,70.24211552659936,,
mp-1207705,TmRhO3,20,Tm1 Rh1 O3,5.17444652,5.70187168,7.51159096,90.0,90.0,90.0,ortho,Pnma,0.0,-7.946072353000001,-2.607933880000002,0.0,True,9.585742424353931,0.9564999999999991,True,221.62220557287324,,
mp-1206773,TmRu3C,5,Tm1 Ru3 C1,4.11425196,4.11425196,4.11425196,90.0,90.0,90.0,cubic,Pm-3m,1.0500000000000001e-05,-8.56665041,-0.259775491500002,0.0,True,11.544118706738894,0.0,False,69.64222759351004,,
mp-1187557,TmScO3,5,Tm1 Sc1 O3,4.001679,4.001679,4.001679,90.0,90.0,90.0,cubic,Pm-3m,0.0005899,-8.53251846,-3.400747740000001,0.6286550321249981,False,6.786384872381213,2.571599999999999,True,64.08062583322518,,
mp-1207696,TmScO3,20,Tm1 Sc1 O3,5.40953,5.708791,7.944283,90.0,90.0,90.0,ortho,Pnma,0.0026546,-9.1118436155,-3.980072895500001,0.049329876624998006,False,7.090336352390517,4.4168,True,245.33436393081755,,
mp-768396,TmSeO3,40,Tm1 Se1 O3,12.416586,5.917272,8.73391714522327,73.9852504990107,90.0,90.0,mono,P2_1/c,0.0012000000000000001,-7.107140160999999,-2.542680966468751,0.02172009363281,False,6.372803748313382,1.819,False,616.7971595804588,,
mp-755525,TmTiO3,20,Tm1 Ti1 O3,5.286485,5.67376,7.650199,90.0,90.0,90.0,ortho,Pnma,4.0007133,-9.096499389,-3.652124086666668,0.061155320249984005,False,7.665057270760334,0.0,False,229.46195942721957,,
mp-1101279,TmTlO3,20,Tm1 Tl1 O3,5.740998,5.8409189999999995,8.490321,90.0,90.0,90.0,ortho,Pnma,0.0007469,-6.8463349855,-2.50676366316667,0.08849144224999801,False,9.829333097205172,0.7359999999999991,True,284.70342348098484,,
mp-755258,TmVO3,20,Tm1 V1 O3,5.19087594,5.62773952,7.48654988,90.0,90.0,90.0,ortho,Pnma,8.0000001,-9.002079601000002,-3.320021488000004,0.0,True,8.135479325832177,0.0,False,218.70381555294156,,
mp-972367,UAlO3,5,U1 Al1 O3,3.766603,3.766603,3.766603,90.0,90.0,90.0,cubic,Pm-3m,3.0021106,-9.212781082,-3.236607310999998,0.173777164850612,False,9.726484321118647,0.0,False,53.437919809877734,,
mp-1187784,UBO3,5,U1 B1 O3,3.587809,3.587809,3.587809,90.0,90.0,90.0,cubic,Pm-3m,2.8670162,-8.784558708,-2.221621748833331,0.9734987449791651,False,10.672859942438274,0.0,False,46.18361720936252,,
mp-1069774,UBRh3,5,U1 B1 Rh3,4.233953,4.233953,4.233953,90.0,90.0,90.0,cubic,Pm-3m,2.0505765,-32.51819936585714,-0.5787840233571441,0.055236393785712004,False,12.198314110529825,0.0,False,75.89935725946259,,
mp-1187752,UBeO3,5,U1 Be1 O3,3.579678,3.579678,3.579678,90.0,90.0,90.0,cubic,Pm-3m,2.0002984,-9.027323898,-3.052382719999998,0.43902614499997805,False,10.680634827670481,0.0,False,45.87033247113277,,
mp-1105902,UCoS3,20,U1 Co1 S3,5.902347,6.8525089999999995,8.396379,90.0,90.0,90.0,ortho,Pnma,1.7033377,-24.65660051282291,-1.200347512510407,0.078939353822914,False,7.689689975743918,0.0,False,339.59898733144945,,
mp-1188226,UCoSe3,20,U1 Co1 Se3,6.22802,7.165544,8.92309,90.0,90.0,90.0,ortho,Pnma,0.348538299999999,-6.7480461169999995,-0.9655338844062481,0.119005798916666,False,8.904457677077925,0.0,False,398.2120878761391,,
mp-22063,UCrS3,20,U1 Cr1 S3,6.2000426,7.1226026,8.92544017,90.0,90.0,90.0,ortho,Pnma,24.0000006,-8.052770542500005,-1.380863306000003,0.016900233708328,False,6.508498798498949,0.0,False,394.1513610207951,,
mp-1106185,UCrSe3,20,U1 Cr1 Se3,6.49267439,7.45388811,9.40069327,90.0,90.0,90.0,ortho,Pnma,24.0000007,-7.430784921,-1.1443465384062481,0.018088932791661003,False,7.692633495080115,0.0,False,454.95283457964933,,
mp-22667,UFeS3,10,U1 Fe1 S3,5.658657168103577,5.658657168103577,8.491823,90.0,90.0,142.10560527794377,ortho,Cmcm,4.0000608,-7.676297755,-1.240995770499998,0.109560473624997,False,7.756704764142548,0.0,False,167.01026619328368,,
mp-1079562,UFeSe3,10,U1 Fe1 Se3,6.303600512345464,6.303600512345464,9.187065,90.0,90.0,144.19645310821292,ortho,Cmcm,1.3619756,-6.874062678,-0.8242295474062481,0.250741900499997,False,8.253847185375301,0.0,False,213.55801301175316,,
mp-1070301,UGa3Ni,5,U1 Ga3 Ni1,5.902001040392403,5.902001040392403,5.902001040392403,138.68792662485694,138.68792662485694,59.85102376172591,tet,I4mm,2.1925098,-5.505498388,-0.274331436499998,0.043698150666666005,False,9.471988331584138,0.0,False,88.68806150312868,,
mp-31428,UGa3Ni,5,U1 Ga3 Ni1,5.993427062678664,5.993427062678664,5.993427062678664,140.33596279059554,140.33596279059554,57.343540692478165,tet,I-4m2,2.309489,-5.423347695999999,-0.192180744499998,0.12584884266666702,False,9.659550507753595,0.0,False,86.96598077044601,,
mp-1187745,UHgO3,5,U1 Hg1 O3,4.289144999999999,4.289144999999999,4.289144999999999,90.0,90.0,90.0,cubic,Pm-3m,0.0345561,-7.9331405759999996,-2.6441475635,0.24559588750000202,False,10.240573700867028,0.0,False,78.90639189116675,,
mp-1187781,UIrO3,5,U1 Ir1 O3,4.009328,4.009328,4.009328,90.0,90.0,90.0,cubic,Pm-3m,2.7850749,-8.537287551999999,-1.5425421109999982,1.34720134000001,False,12.322078365730297,0.0,False,64.44878895065206,,
mp-19912,UMnSe3,10,U1 Mn1 Se3,5.815400856552281,5.815400856552281,9.162616,90.0,90.0,140.7444264568254,ortho,Cmcm,9.9999995,-7.237256276999998,-1.049024329992454,0.059306191600001,False,8.974237184531827,0.0,False,196.07941042901052,,
mp-1189264,UNiS3,20,U1 Ni1 S3,5.945911,7.061006,8.328957,90.0,90.0,90.0,ortho,Pnma,4.9927674,-7.177297923499999,-1.279972844999996,0.021444308541652003,False,7.463364391356659,0.0,False,349.6838739129457,,
mp-1188256,UNiSe3,20,U1 Ni1 Se3,6.255074,7.38731,8.8402,90.0,90.0,90.0,ortho,Pnma,6.7162732,-6.5712861799999995,-1.059429955406248,0.034535965083328006,False,8.676527012789041,0.0,False,408.48947071885175,,
mp-1216814,UOF3,5,U1 O1 F3,3.811975952700646,3.811975952700646,5.113238,90.0,90.0,119.99999917908717,trig,P3m1,0.9884987999999991,-7.73244835,-3.337686766499998,0.5059981987916511,False,8.026299871232114,0.0,False,64.34679904975295,,
mp-1187714,UPdO3,5,U1 Pd1 O3,4.210241,4.210241,4.210241,90.0,90.0,90.0,cubic,Pm-3m,0.002304499999999,-8.711690712,-2.4486557449999973,0.441087706000004,False,8.731912281353836,0.6282000000000001,False,74.63127625787703,,
mp-21103,UPdSe3,20,U1 Pd1 Se3,6.45456131,8.0767433,8.69590661,90.0,90.0,90.0,ortho,Pnma,8.00609,-6.492053683500001,-1.100248432906249,0.0,True,8.517519424598364,0.0,False,453.3335669590277,,
mp-28607,UReB3,10,U1 Re1 B3,5.059883058656097,5.059880972037191,5.107098830003282,90.00011131425646,90.00000026844266,120.00006701539508,hex_,P6_3/mmc,0.0055166,-9.309563072999998,-0.5540231669999961,0.0,True,13.393533181133215,0.0,False,113.23622457214516,"{'voigt': 386193719.765, 'reuss': -79578353.124, 'vrh': 153307683.321}","{'voigt': 134046220.159, 'reuss': -14561.284, 'vrh': 67015829.438}"
mp-1187779,UReO3,5,U1 Re1 O3,3.981263,3.981263,3.981263,90.0,90.0,90.0,cubic,Pm-3m,1.882063,-9.562426534,-1.845745087499997,1.064419664777789,False,12.42635760544446,0.0,False,63.10483032393257,,
mp-21217,URhS3,20,U1 Rh1 S3,6.083469,7.106131,8.451046999999999,90.0,90.0,90.0,ortho,Pnma,7.9427332,-7.531425115,-1.317265798499998,0.048183152454547004,False,7.947382026678309,0.0,False,365.33815036355753,,
mp-1105660,URuS3,20,U1 Ru1 S3,5.9671578400000005,6.93488214,8.82829566,90.0,90.0,90.0,ortho,Pnma,8.0008063,-27.1833636565,-1.289049823187503,0.0033801408333320004,False,7.914221490811957,0.0,False,365.328437596662,,
mp-1068256,USi3Ir,5,U1 Si3 Ir1,5.728770592331094,5.728770592331094,5.728770592331094,137.29921467198554,137.29921467198554,61.97799714528741,tet,I4mm,2.7047761,-7.845220875999999,-0.564061219999997,0.0,True,9.997823976007368,0.0,False,85.4537301031815,,
mp-1187767,USiO3,5,U1 Si1 O3,3.795582999999999,3.795582999999999,3.795582999999999,90.0,90.0,90.0,cubic,Pm-3m,3.5260294,-8.765367044,-2.453244832999998,0.7788711141666711,False,9.538915254776812,0.0,False,54.68087788655943,,
mp-1187783,UTcO3,5,U1 Tc1 O3,3.967178,3.967178,3.967178,90.0,90.0,90.0,cubic,Pm-3m,1.3279553,-9.315465532000001,-2.016279138,0.8924897282500021,False,10.21329604762661,0.0,False,62.43743604560292,,
mp-1187736,UTiO3,5,U1 Ti1 O3,3.922603,3.922603,3.922603,90.0,90.0,90.0,cubic,Pm-3m,3.2180254,-9.912026782,-3.105869773666664,0.307579281999979,False,9.186176531949698,0.0,False,60.35636391639875,,
mp-865322,UTlO3,5,U1 Tl1 O3,4.32518333,4.32517519,4.32544057,90.0,90.0,90.0,cubic,Pm-3m,1.0,-8.64013012600006,-2.9387770976667262,0.0,True,10.063990194018816,0.2736,True,80.91677642495134,"{'voigt': 132.86, 'reuss': 132.86, 'vrh': 132.86}","{'voigt': 62.841, 'reuss': 55.833, 'vrh': 59.337}"
mp-1188711,UVS3,20,U1 V1 S3,6.086498,6.98295,8.968122,90.0,90.0,90.0,ortho,Pnma,19.9529741,-8.075900941,-1.517821984499998,0.05923799397729101,False,6.71194583734017,0.0,False,381.16053133197624,,
mp-1188372,UVSe3,20,U1 V1 Se3,6.51063868,7.30833521,9.54962879,90.0,90.0,90.0,ortho,Pnma,20.0000002,-7.424289672999999,-1.251679570406246,0.00491690968751,False,7.686750108045079,0.0,False,454.38976770103494,,
mp-27769,V3AsC,10,V3 As1 C1,3.13948863,5.24766143084718,7.651175,90.0,90.0,107.40548635017676,ortho,Cmcm,5e-07,-8.744546,-0.514444753,0.0,True,6.619915359744392,0.0,False,120.2811550443676,"{'voigt': 196.809, 'reuss': 183.749, 'vrh': 190.279}","{'voigt': 87.423, 'reuss': 65.675, 'vrh': 76.549}"
mp-1079224,V3AsN,10,V3 As1 N1,5.345999905013935,5.345999905013935,7.551416,90.0,90.0,146.1108700882542,ortho,Cmcm,0.0005849,-14.09066915466666,-0.8696673849166581,0.028362014166667,False,6.671925470714408,0.0,False,120.33706630027795,,
mp-635460,V3AuN,5,V3 Au1 N1,4.879088,4.879088,4.879088,90.0,90.0,90.0,cubic,Pm-3m,5.7950885,-18.191971426000006,2.204516176249993,2.887722394666667,False,5.201075705734645,0.0,False,116.14912797757363,"{'voigt': 51.353, 'reuss': 51.353, 'vrh': 51.353}","{'voigt': 11.681000000000001, 'reuss': -30.087, 'vrh': -9.203}"
mp-1078963,V3GaN,10,V3 Ga1 N1,5.275322741499592,5.275322678877508,7.8287807903153706,89.98759937302673,90.01240143274421,147.2457864491329,ortho,Cmcm,0.0001417,-8.473873032000013,-0.750254636500012,0.0,True,6.664861821314796,0.0,False,117.87415883464467,,
mp-1079313,V3GeC,10,V3 Ge1 C1,3.06517977,5.200238960594778,7.8319491,90.0,90.0,107.14046520452384,ortho,Cmcm,1e-07,-8.69376434,-0.47308202850000003,0.0,True,6.611178354957769,0.0,False,119.2939672102273,,
mp-1079695,V3GeN,10,V3 Ge1 N1,5.232297541557213,5.232297541557213,7.746992115555617,89.97949104226005,90.02050895773996,146.32646572144367,ortho,Cmcm,1.4e-06,-8.835094885999997,-0.7924901239999981,0.0,True,6.7630742201165415,0.0,False,117.59483039319048,,
mp-1080573,V3PC,10,V3 P1 C1,5.056426419876718,5.056426419876718,7.49143823076371,89.99845032955297,90.00154967044706,144.12148571710114,ortho,Cmcm,1e-07,-9.081261442999999,-0.702089997428571,0.005308297171298,False,5.793095035979727,0.0,False,112.25378799138096,,
mp-1079048,V3PN,10,V3 P1 N1,5.074417907946945,5.074417907946945,7.352463210065859,89.99953437178453,90.00046562821547,144.37747374908972,ortho,Cmcm,0.0,-13.118699158000002,-1.038788323345238,0.017273955047619003,False,5.957414521637698,0.0,False,110.27027438675988,,
mp-1100926,VAgO3,40,V1 Ag1 O3,5.327099324222141,14.883772764700621,9.37683501395268,55.47088677511917,91.978404024409,86.88864761233341,tri,P-1,0.0007863,-7.0310032655,-1.676857912833333,0.07809851700001201,False,4.506266912812578,1.7207,False,609.6622395004396,,
mp-1178815,VAgO3,20,V1 Ag1 O3,7.30595360797313,7.30595360797313,5.802879396740563,74.50897404910603,74.50897404910603,85.38522191132587,mono,C2/c,0.0,-7.0974000565,-1.743254703833332,0.011701726000012002,False,4.7757440552437025,1.9488,False,287.6306546239166,,
mp-559736,VAgO3,20,V1 Ag1 O3,9.16997088943198,9.16997088943198,8.007549439565082,75.756374899782,75.756374899782,22.45148103960936,mono,Cm,0.0,-7.1091017825,-1.754956429833332,0.0,True,5.51826198310841,1.628299999999999,False,248.92808517080482,,
mp-624691,VAgO3,20,V1 Ag1 O3,7.297702207230507,7.297702207230507,5.601956752011658,82.8904891165025,82.8904891165025,86.78467741411825,mono,C2/c,0.0004055,-7.0859557935,-1.731810440833332,0.023145989000012003,False,4.679945601066319,1.918899999999999,True,293.51845214034967,,
mp-18946,VBO3,10,V1 B1 O3,5.522130316437083,5.522130650853182,5.522129720139836,49.56772360396756,49.567735926183296,49.56773785217251,trig,R-3c,4.0,-8.848075437,-2.726639265833333,0.0,True,4.063605840500683,1.874699999999999,False,89.69635938619571,,
mp-1187744,VBiO3,5,V1 Bi1 O3,3.939753,3.939753,3.939753,90.0,90.0,90.0,cubic,Pm-3m,1.9179222,-7.377992122,-1.814427443000001,0.27371001112500104,False,8.361422175665389,0.0,False,61.15148173351132,,
mp-756282,VBiO3,20,V1 Bi1 O3,5.413356635637962,5.635266440695615,7.829876236578732,90.00057967432174,90.39745546509022,89.99830294224499,ortho,Pnma,8.0000001,-7.641337985,-2.077773306,0.010364148125002,False,8.56291406739171,1.297099999999999,False,238.85016311841898,,
mp-1016904,VCdO3,5,V1 Cd1 O3,3.840124,3.840124,3.840124,90.0,90.0,90.0,cubic,Pm-3m,0.0003964,-6.763391212,-1.7858313570000002,0.28585682900000103,False,6.197507247700209,0.0,False,56.628589540333415,,
mp-22649,VCdO3,20,V1 Cd1 O3,5.322234,5.403246,7.603059,90.0,90.0,90.0,ortho,Pnma,4.000129,-6.9790683805,-2.0015085255,0.0701796605,False,6.420601457724622,0.42989999999999906,False,218.64374944563582,,
mp-556857,VCdO3,20,V1 Cd1 O3,3.58967774,5.26484532,14.28396924,90.0,90.0,90.0,ortho,Pnma,4.0000007,-7.049248041000001,-2.071688186000001,0.0,True,5.200232903785855,0.0,False,269.95413520633264,,
mp-22938,VCl3O,20,V1 Cl3 O1,4.96398277,9.37686286,11.53302141,90.0,90.0,90.0,ortho,Pnma,0.0,-5.536248269,-1.620752858,0.08142675299997801,False,2.144255204751787,2.8945,False,536.8227691370997,,
mp-10057,VCoB3,10,V1 Co1 B3,2.96576088,2.9926527160127554,8.823090284440687,99.7640925903608,90.0,90.0,ortho,Cmcm,1e-07,-7.861651258,-0.6105516375000001,0.0,True,6.123945771908302,0.0,False,77.17491167517669,"{'voigt': 298.394, 'reuss': 294.593, 'vrh': 296.493}","{'voigt': 204.592, 'reuss': 202.089, 'vrh': 203.341}"
mp-1187746,VCoO3,5,V1 Co1 O3,3.776132999999999,3.776132999999999,3.776132999999999,90.0,90.0,90.0,cubic,Pm-3m,2.0065078,-7.6933873340000005,-1.481146173000001,0.541067191499996,False,4.868720275483928,0.0,False,53.84456178860735,,
mp-1206118,VCoO3,10,V1 Co1 O3,4.995186442048384,5.504188536494821,5.115817604176383,62.297301540594006,118.65336598646756,116.23610380938861,tri,P-1,7.9999994999999995,-8.212322635,-2.000081474,0.022131890499997003,False,5.000794880552624,0.11430000000000001,False,104.84497603539772,,
mp-1277045,VCoO3,10,V1 Co1 O3,5.060056487223142,5.526110772837349,4.989405187216008,63.35074915142368,118.8142623022618,118.43172080038634,tri,P1,5.9999998,-8.135140590999999,-1.9228994300000002,0.09931393449999701,False,5.087313726796352,1.151399999999999,False,103.06190016310505,,
mp-1101715,VCrO3,20,V1 Cr1 O3,5.015817819238412,5.401852690851388,8.92349397431616,85.22156065055887,73.50997016945978,117.51382703660313,tri,P-1,20.0,-9.157033004499997,-2.440865693499996,0.009702037625004,False,5.038628711251776,1.612299999999999,True,198.97063809352017,,
mp-1216392,VCrO3,10,V1 Cr1 O3,5.029768250029639,5.398022947349973,5.030166204900709,62.22542167502507,119.9973277417527,90.00014994620513,trig,R3c,10.0000001,-9.159223561999998,-2.443056250999997,0.007511480125003,False,5.027905257482025,1.613299999999999,False,99.6975000973038,,
mp-1337287,VCrO3,20,V1 Cr1 O3,5.109285,5.509690957093782,8.85979452556875,105.59203230350911,89.85997116013785,117.58434768321565,tri,P1,20.0000001,-7.893011195,-1.176843883999998,1.273723847125001,False,4.757296302084004,0.0,False,210.7371721527877,,
mp-1370790,VCrO3,20,V1 Cr1 O3,5.097243,5.499617883738196,8.86164650938199,105.5820136525138,89.94178381106084,117.60006865212254,tri,P1,0.4113618,-7.603256185499999,-0.8870888744999981,1.563478856625002,False,4.7778949139992335,0.0,False,209.8286353801246,,
mp-1373421,VCrO3,20,V1 Cr1 O3,5.126993,5.499044174592981,8.827918534580279,105.45597248622461,89.97797843467715,117.7208082976176,tri,P1,0.637182599999999,-7.601998720999999,-0.8858314099999981,1.564736321125002,False,4.771343255848526,0.0,False,210.11675665237954,,
mp-1374293,VCrO3,20,V1 Cr1 O3,5.119956,5.494272901562135,8.87612391529208,105.62937613332551,89.96055967178772,117.53975766524024,tri,P-1,0.0183424,-7.801229787999999,-1.085062476999998,1.3655052541250021,False,4.7523802109818245,0.258499999999999,False,210.9551688388535,,
mp-1375284,VCrO3,20,V1 Cr1 O3,5.118099,5.500426673546335,8.829189514207066,105.49564474693611,89.93937639788757,117.65709477009196,tri,P1,0.0551293,-7.518737944,-0.8025706329999991,1.6479970981250012,False,4.775316745659694,0.0,False,209.94192075432676,,
mp-1376270,VCrO3,20,V1 Cr1 O3,5.106262,5.496894699886201,8.847112485727532,105.53829532351409,90.01317261612128,117.66117203586421,tri,P1,20.0000001,-7.866720796999999,-1.150553485999998,1.300014245125002,False,4.782309999063952,0.0,False,209.63491910610674,,