mp_id,formula,sites,composition,a_edge (angstrom),b_edge (angstrom),c_edge (angstrom),alpha_ang (deg),beta_ang (deg),gamma_ang (deg),crystal_system,space_group,total_magnetisation (bohr),energy_per_atom (eV/atom),formation_energy (eV/atom),energy_above_hull (eV/atom),stable,density (g/cc),band_gap (eV),direct_bandgap,volume (cubic-angstrom),bulk_modulus (GPa),shear_modulus (GPa)
mp-570591,CsHgCl3,5,Cs1 Hg1 Cl3,5.402792,5.402792,5.402792,90.0,90.0,90.0,cubic,Pm-3m,1.4e-06,-2.872839774,-1.522037546431036,0.032840399333335005,False,4.631304596224877,0.0,False,157.70837046504116,"{'voigt': 27.743, 'reuss': 27.743, 'vrh': 27.743}","{'voigt': 10.156, 'reuss': 10.029, 'vrh': 10.092}"
mp-675010,CsHgCl3,10,Cs1 Hg1 Cl3,6.430336,6.430336,8.835192,90.0,90.0,90.0,tet,P-42_1m,0.003443,-2.826351826,-1.475549598431036,0.079328347333335,False,3.9985705270798,2.0663,False,365.32830722948205,,
mp-561947,CsHgF3,5,Cs1 Hg1 F3,4.5954497199999995,4.5954497199999995,4.5954497199999995,90.0,90.0,90.0,cubic,Pm-3m,0.0,-3.638687946000002,-2.250120333931038,0.0,True,6.681526473864588,0.7228,False,97.04743386104975,"{'voigt': 49.422, 'reuss': 49.422, 'vrh': 49.422}","{'voigt': 17.451, 'reuss': 16.076, 'vrh': 16.764}"
mp-28295,CsIO3,10,Cs1 I1 O3,4.6690437142666665,6.601774174054499,6.61473721,90.0,90.0,89.99353566671242,ortho,Pmn2_1,0.0,-4.827901016999999,-1.374576066931034,0.0,True,5.013695697484159,3.091199999999999,True,203.89247464229052,,
mp-613384,CsIO3,5,Cs1 I1 O3,4.590332,4.590332,4.590332,90.0,90.0,90.0,cubic,Pm-3m,0.009489299999999,-2.861480212,0.5918447380689641,1.966420805000008,False,5.2844145569985095,0.0,False,96.72356434542107,,
mp-1112338,CsInBr3,10,Cs1 In1 Br3,8.145606524003137,8.145606524003137,8.145606524003137,60.00000000000001,60.00000000000001,60.00000000000001,cubic,Fm-3m,0.0,-3.261870632,-1.5481221382643682,0.0,True,4.235853401834922,1.3782,False,382.1688493634601,,
mp-2649045,CsInBr3,5,Cs1 In1 Br3,5.69175635,5.69175635,5.68992117,90.0,90.0,90.0,cubic,Pm-3m,3.2200000000000003e-05,-3.237481115,-1.523732621264368,0.024389516999996003,False,4.39103965595892,0.0,False,184.33120029498258,,
mp-998323,CsInBr3,5,Cs1 In1 Br3,5.7740089999999995,5.7740089999999995,5.774409,90.0,90.0,90.0,tet,P4mm,0.0001869,-3.242876033999999,-1.529127540264367,0.018994597999997,False,4.204397370159399,0.0,False,192.51406065242793,,
mp-1112961,CsInCl3,10,Cs1 In1 Cl3,7.7925337397469,7.7925337397469,7.7925337397469,60.00000000000001,60.00000000000001,60.00000000000001,cubic,Fm-3m,0.0,-14.87219121,-1.6451688854999982,0.014203413666663,False,3.514490881619026,1.7756999999999992,False,334.5962553225378,,
mp-1112960,CsInF3,10,Cs1 In1 F3,6.636698437717203,6.636698437717203,6.636698437717203,59.99999999999999,59.99999999999999,59.99999999999999,cubic,Fm-3m,0.0,-14.117611291,-2.7078595794999982,0.0,True,4.895949052546788,3.060899999999999,False,206.7003705766098,,
mp-998322,CsInF3,5,Cs1 In1 F3,4.674301,4.674301,4.674301,90.0,90.0,90.0,cubic,Pm-3m,0.005258899999999,-14.011202647,-2.6014509354999973,0.106408643999992,False,4.954480504673031,0.0,False,102.12922248166248,,
mp-1112643,CsInI3,10,Cs1 In1 I3,8.811141634853454,8.811141634853454,8.811141634853454,60.00000000000001,60.00000000000001,60.00000000000001,cubic,Fm-3m,0.0005538,-2.797477308,-1.151489166264368,0.021831326249999002,False,4.314785346466761,0.056499999999999,False,483.70608328452926,,
mp-998314,CsInI3,5,Cs1 In1 I3,6.09660249,6.130694604335049,6.123509997204274,89.98627588492663,90.0,90.0,mono,Pm,0.0,-2.805654102000002,-1.15966596026437,0.013654532249997001,False,4.559453262629529,0.0,False,228.87480142183225,,
mp-998430,CsInI3,20,Cs1 In1 I3,11.00212173840185,10.856241162250944,11.051912567994435,92.85821201624405,111.38794010519557,101.05748753844519,tri,P-1,0.0,-2.801468136499997,-1.155479994764365,0.017840497750003,False,3.490349923099644,1.4872,False,1195.9190145035407,,
mp-984356,CsIrO3,5,Cs1 Ir1 O3,4.093677,4.093677,4.093677,90.0,90.0,90.0,cubic,Pm-3m,1.076199,-5.96647933,-1.050270066931035,0.211369962499999,False,9.031453833916114,0.0,False,68.60262261525105,,
mp-984357,CsKO3,5,Cs1 K1 O3,4.493182,4.493182,4.493182,90.0,90.0,90.0,cubic,Pm-3m,0.0002015,-3.787976549999999,-0.41318017838103405,0.6897979190000021,False,4.027296458972959,0.0,False,90.71143373223842,"{'voigt': 38.067, 'reuss': 38.067, 'vrh': 38.067}","{'voigt': 35.867, 'reuss': 30.165, 'vrh': 33.016}"
mp-1183918,CsLaO3,5,Cs1 La1 O3,4.765355,4.765355,4.765355,90.0,90.0,90.0,cubic,Pm-3m,1.9999964000000001,-6.362289472,-2.226565623931035,0.251665629249999,False,4.907430595888201,0.0,False,108.21457999119708,,
mp-29750,CsMgBr3,10,Cs1 Mg1 Br3,7.64834679,7.648346798870048,6.50988533,90.0,90.0,120.0000044913844,hex_,P6_3/mmc,0.0,-3.4630993230000002,-1.9750915749310352,0.0,True,3.9971059907955873,4.0445,True,329.7912236044661,,
mp-23004,CsMgCl3,10,Cs1 Mg1 Cl3,7.29291267,7.292912736954026,6.18159097,90.0,90.0,119.99999965094622,hex_,P6_3/mmc,0.0,-3.930525773999998,-2.315563950931034,0.0,True,3.074264558735992,5.126099999999999,True,284.72980335970163,,
mp-8401,CsMgF3,5,Cs1 Mg1 F3,4.252307,4.252307,4.252307,90.0,90.0,90.0,cubic,Pm-3m,1.7400000000000003e-05,-11.158948238749996,-3.431053886249998,0.05763061875000101,False,4.626006179218942,6.7028,True,76.89070343345318,"{'voigt': 62.499, 'reuss': 62.499, 'vrh': 62.499}","{'voigt': 38.209, 'reuss': 33.873, 'vrh': 36.041}"
mp-23751,CsMgH3,15,Cs1 Mg1 H3,8.24752905988439,8.24752843667469,8.247528802006723,44.393324442638324,44.3933269556352,44.39332498233858,trig,R-3m,0.0,-2.862864977000001,-0.31992528668103504,0.0029730879999990004,False,3.198211018130811,2.6161000000000003,False,249.5850962832938,,
mp-571020,CsMgH3,30,Cs1 Mg1 H3,6.11707186,8.52803537,9.95206766,90.0,90.0,90.0,ortho,Pmmn,0.0,-2.865838065,-0.32289837468103505,0.0,True,3.075033588209561,2.9535,False,519.1655843728438,,
mp-29751,CsMgI3,10,Cs1 Mg1 I3,8.29721548,8.297214954690096,7.03483124,90.0,90.0,119.99999787895469,hex_,P6_3/mmc,0.0,-2.910670538000002,-1.490423141931037,0.0,True,4.25942394432683,3.1519999999999992,False,419.41990241709254,,
mp-984756,CsMgO3,5,Cs1 Mg1 O3,4.292401,4.292401,4.292401,90.0,90.0,90.0,cubic,Pm-3m,3.0,-4.796850304,-1.322233873931035,0.48208435000000005,False,4.308676645275569,0.0,False,79.08622793913015,,
mp-23048,CsMnBr3,10,Cs1 Mn1 Br3,7.659426960001114,7.659433697476662,6.5245266,90.0,90.0,120.0000286592712,hex_,P6_3/mmc,9.9999999,-4.563924619,-1.569607815517241,0.0,True,4.283503586958503,0.0,False,331.4915425324251,,
mp-23336,CsMnCl3,15,Cs1 Mn1 Cl3,10.060148294253523,10.060147429980859,10.060148439763214,42.59069864116155,42.590701899701735,42.59070069318415,trig,R-3m,15.0,-13.551079429333333,-1.903108245729885,0.0,True,3.470400822528253,1.482899999999999,False,422.315546166055,,
mp-558702,CsMnF3,30,Cs1 Mn1 F3,6.218659669554795,6.218659678215031,15.07914490000001,90.00000275117108,89.9999959199376,119.99962629772693,hex_,P6_3/mmc,30.0000033,-6.150157400333333,-2.991121137350575,0.0,True,4.830341796798406,3.4556,False,505.0130043739792,,
mp-540609,CsMnI3,10,Cs1 Mn1 I3,8.278309440001703,8.278318009675148,6.99357684,90.0,90.0,120.00003255708832,hex_,P6_3/mmc,9.9999994,-4.061614498000003,-1.135058046517244,0.0022094363333300003,False,4.549246094400322,0.0,False,415.0625997810132,,
mp-1183917,CsMoO3,5,Cs1 Mo1 O3,4.13308,4.13308,4.13308,90.0,90.0,90.0,cubic,Pm-3m,0.9997940999999991,-7.094930356000001,-1.777277906931036,0.37378243524999805,False,6.511217942104932,0.0,False,70.60272032171409,,
mp-1196533,CsNO3,40,Cs1 N1 O3,9.304298,9.304298,9.304298,90.0,90.0,90.0,cubic,Pa-3,0.020192599999999002,-6.210908775,-1.3947307989310351,0.021673316333334,False,3.214571982593777,3.276399999999999,True,805.4727175306276,,
mp-22628,CsNO3,10,Cs1 N1 O3,5.55043639,5.07934978,6.15494142,90.0,90.0,90.0,ortho,Pmmn,7.8e-05,-6.22821231777778,-1.412034341708815,0.004369773555554,False,3.73039503359668,3.0919,True,173.52384983348455,,
mp-561851,CsNO3,45,Cs1 N1 O3,10.846900414859324,10.844804266521928,7.680832795714938,89.99256163594171,89.99247834378488,119.99233959331714,trig,P3_1,0.0,-6.232582091333334,-1.41640411526437,0.0,True,3.722431331775072,3.2965,False,782.5278761941025,"{'voigt': -70081481.712, 'reuss': 68669.81, 'vrh': -35006405.951}","{'voigt': -3843530948.5, 'reuss': 255922.942, 'vrh': -1921637512.779}"
mp-998309,CsNaF3,5,Cs1 Na1 F3,4.593457796408387,4.593457796408387,4.56773658059766,86.45145411432132,86.45145411432132,87.5978066697526,mono,Cm,0.9999984,-3.989099236,-2.394121875706896,0.012379128999999002,False,3.6847603652083603,0.0,False,95.93917709096479,,
mp-998609,CsNaF3,20,Cs1 Na1 F3,4.158445,7.002554,13.573250999999999,90.0,90.0,90.0,ortho,Pnma,4.0011304,-4.001478365,-2.406501004706896,0.0,True,3.57761762083351,0.029499999999999003,False,395.24948128261053,,
mp-1183929,CsNaO3,5,Cs1 Na1 O3,4.448345,4.448345,4.448345,90.0,90.0,90.0,cubic,Pm-3m,8.1e-05,-3.68425351,-0.267386927206897,0.8408461866666691,False,3.846421940332156,0.0,False,88.02284214895064,,
mp-1096944,CsNbO3,5,Cs1 Nb1 O3,4.170919,4.170919,4.170919,90.0,90.0,90.0,cubic,Pm-3m,1.6800000000000002e-05,-7.751388582,-2.582605146931035,0.25129334674999804,False,6.266184612052443,1.276199999999999,True,72.55966476353424,,
mp-27556,CsNbO3,40,Cs1 Nb1 O3,16.04611897,5.169600476979795,9.291497474848203,86.8390443219499,90.0,90.0,mono,P2_1/c,0.0,-8.002681928749999,-2.8338984936810343,0.0,True,4.7264709115834425,3.3517,False,769.5758857758333,,
mp-1183922,CsNdO3,5,Cs1 Nd1 O3,4.717574,4.717574,4.717574,90.0,90.0,90.0,cubic,Pm-3m,2.0020867,-6.251415182000001,-2.149263268431035,0.28177719574999704,False,5.142459551389267,0.0,False,104.99198912886199,,
mp-1080570,CsNiBr3,10,Cs1 Ni1 Br3,7.556074975932907,7.556077593440975,6.276133750000738,89.99994798299986,90.0000507992879,119.99973701673326,hex_,P6_3/mmc,4.0000001,-3.6158858240000002,-1.297944742931034,0.0,True,4.615862230298166,0.0,False,310.3249116610712,,
mp-22950,CsNiCl3,10,Cs1 Ni1 Cl3,7.208773980001273,7.208780297233207,5.940153440000182,90.00000375120047,90.00001845626468,120.00003263004655,hex_,P6_3/mmc,3.9999997,-12.641281607,-1.533633926499999,0.0,True,3.70154110632652,0.8049000000000001,False,267.3322484164909,"{'voigt': 15.811, 'reuss': 60.253, 'vrh': 38.032}","{'voigt': 181370587053.898, 'reuss': 29.539, 'vrh': 90685293541.718}"
mp-1194078,CsNiF3,30,Cs1 Ni1 F3,6.109167407649917,6.109167407649917,14.715549,90.0,90.0,119.99999358512149,hex_,P6_3/mmc,4.0,-11.830290030666667,-2.539912963166665,0.028610336333333004,False,5.207387742686004,0.0,False,475.63212640576825,,
mp-505492,CsNiF3,15,Cs1 Ni1 F3,8.349917885116296,8.349917885116296,8.34991858492764,43.7867700291335,43.7867700291335,43.78677183038252,trig,R-3m,6.0034086,-11.851481175333333,-2.561104107833332,0.007419191666667001,False,4.893373245908569,5.1948,True,253.07704732558184,,
mp-557772,CsNiF3,10,Cs1 Ni1 F3,6.2008944000007356,6.20089965533488,5.19003829,90.0,90.0,120.00002675582408,hex_,P6_3/mmc,4.0000002,-11.858900367,-2.568523299499999,0.0,True,4.777049345902455,5.3618,False,172.8264126890776,,
mp-611601,CsNiF3,10,Cs1 Ni1 F3,7.429746190815,7.429746190815,5.42097,90.0,90.0,120.00000169914534,hex_,P6_3/mmc,3.9996598,-11.764135747000001,-2.4737586795,0.09476461999999901,False,3.185768830920607,4.3878,False,259.15260821120165,,
mp-1183933,CsNpO3,5,Cs1 Np1 O3,4.391044,4.391044,4.391044,90.0,90.0,90.0,cubic,Pm-3m,2.000006,-8.721830296,-2.9837519326810362,0.08905128400001201,False,8.196376452751363,0.0,False,84.66489357279501,,
mp-1183914,CsOsO3,5,Cs1 Os1 O3,4.055253,4.055253,4.055253,90.0,90.0,90.0,cubic,Pm-3m,0.0180577,-6.716291416,-1.3222955029310342,0.241042682999998,False,9.241140426525902,0.0,False,66.6889474096607,,
mp-1213226,CsPO3,20,Cs1 P1 O3,4.30527062,6.812608572654349,13.804588103137284,66.40094051613012,90.0,90.0,mono,P2_1/c,0.0,-6.9074490815,-2.675831949359607,0.0,True,3.793026488181845,5.422300000000001,True,371.02901781186864,,
mp-1213232,CsPO3,20,Cs1 P1 O3,4.58139663,6.50273785,13.32108231,90.0,90.0,90.0,ortho,Pnma,0.0,-6.894313074000003,-2.6626959418596092,0.013136007499997,False,3.546174496670516,5.0865,False,396.85663910950774,,
mp-504838,CsPS3,10,Cs1 P1 S3,7.245292508964886,7.530680202064742,7.5306800699025365,74.19901481004588,61.24588755585955,61.24588460376906,ortho,Immm,0.0,-12.475561895,-0.8343062732827361,0.0,True,2.7388807315107133,1.9062000000000001,False,315.3575746673914,,
mp-1183920,CsPaO3,5,Cs1 Pa1 O3,4.42986213,4.42986213,4.42986213,90.0,90.0,90.0,cubic,Pm-3m,0.0,-8.516854444,-3.459472580931035,0.0,True,7.86886217827183,2.972999999999999,False,86.93019019772653,,
mp-1014168,CsPbBr3,10,Cs1 Pb1 Br3,8.19814187,8.19814187,8.373861776600569,119.30823798314472,119.30823798314472,90.0,tet,I4/mcm,0.0,-3.533178795499998,-1.6287356364310321,0.007483645000001001,False,4.741253582787796,1.8177999999999992,True,406.14133522480637,"{'voigt': 17.944, 'reuss': 17.43, 'vrh': 17.687}","{'voigt': 8.35, 'reuss': 6.33, 'vrh': 7.34}"
mp-1120725,CsPbBr3,10,Cs1 Pb1 Br3,8.216920344222125,8.216920344222125,6.03736639,90.0,90.0,89.9472387811037,ortho,Amm2,0.0,-3.531585397499998,-1.627142238431032,0.009077043000002,False,4.723945448529764,1.955,True,407.6294025266833,,
mp-567629,CsPbBr3,20,Cs1 Pb1 Br3,8.10107841,8.45384704,11.87891123,90.0,90.0,90.0,ortho,Pnma,0.0,-3.5360780535,-1.6316348944310342,0.0045843869999990005,False,4.733981032983984,2.012099999999999,True,813.5305348019324,,
mp-567681,CsPbBr3,20,Cs1 Pb1 Br3,4.60907397,9.84551805,16.95083421,90.0,90.0,90.0,ortho,Pnma,0.0,-3.5406624405000002,-1.6362192814310341,0.0,True,5.006763123039218,2.8808,False,769.2071757466882,"{'voigt': 11.862, 'reuss': 11.343, 'vrh': 11.602}","{'voigt': 5.895, 'reuss': 5.128, 'vrh': 5.511}"
mp-600089,CsPbBr3,5,Cs1 Pb1 Br3,5.948636320004472,5.948622910005815,5.9486332300017875,89.99992044160842,90.00002976216689,90.00013908263769,cubic,Pm-3m,0.0,-3.515589418500002,-1.611146259431036,0.025073021999998002,False,4.5739280629479495,1.7819,True,210.49949127443736,"{'voigt': 18.482, 'reuss': 18.482, 'vrh': 18.482}","{'voigt': 9.735, 'reuss': 6.189, 'vrh': 7.962}"
mp-1539667,CsPbCl3,10,Cs1 Pb1 Cl3,5.75527897,11.137221066930172,7.875528606667165,45.002357590358905,90.0,90.0,tet,P4/mbm,0.0,-3.920044919,-1.888647684931034,0.0,True,4.153748273575659,2.7365,True,356.9651386649454,,
mp-23037,CsPbCl3,5,Cs1 Pb1 Cl3,5.67984477,5.67984477,5.67984477,90.0,90.0,90.0,cubic,Pm-3m,0.0,-3.907230806999999,-1.875833572931033,0.012814112,False,4.046006564887253,2.1878,True,183.23540813354208,,
mp-675022,CsPbCl3,5,Cs1 Pb1 Cl3,5.676943642575174,5.676943642575174,5.676942959092829,89.68499391794263,89.68499391794263,89.68498376703421,trig,R32,0.0,-3.9064020050000012,-1.8750047709310351,0.013642913999998,False,4.052396268077773,2.310499999999999,False,182.94648775297858,,
mp-675524,CsPbCl3,10,Cs1 Pb1 Cl3,5.76356648,11.134393933810834,7.867505357134306,44.95846599184642,90.0,90.0,ortho,Amm2,0.0,-3.920008634000001,-1.888611399931036,3.6284999998859035e-05,False,4.156244523078858,2.4130000000000003,True,356.75074462602305,,
mp-20282,CsPbF3,10,Cs1 Pb1 F3,6.664755130049911,6.664755297791261,6.664756088813605,62.28894390519443,62.28893760995466,62.28893791754317,trig,R3c,0.0,-4.854054984999999,-2.784892366431033,0.0,True,5.99379934099832,3.337399999999999,False,220.02777346350848,,
mp-5811,CsPbF3,5,Cs1 Pb1 F3,4.8314112300000005,4.8314112300000005,4.8314112300000005,90.0,90.0,90.0,cubic,Pm-3m,0.0,-4.844948768,-2.775786149431034,0.009106217000001,False,5.846927310548791,2.9083,True,112.77738319130246,,
mp-1069538,CsPbI3,5,Cs1 Pb1 I3,6.27514229,6.27514229,6.27514229,90.0,90.0,90.0,cubic,Pm-3m,0.0,-3.076709898,-1.240027090931034,0.025049344000002003,False,4.844004143862671,1.4785,True,247.0988555291859,,
mp-1120768,CsPbI3,20,Cs1 Pb1 I3,8.853381,8.930536,12.757759,90.0,90.0,90.0,ortho,Pnma,8.52e-05,-3.085935925,-1.249253117931034,0.015823317000002002,False,4.74650734914947,1.6421000000000001,True,1008.6977999446959,,
mp-540839,CsPbI3,20,Cs1 Pb1 I3,4.84714164,10.65044663,18.03119927,90.0,90.0,90.0,ortho,Pnma,0.0,-3.101759242000002,-1.265076434931037,0.0,True,5.143480376565951,2.5181,False,930.846658290349,"{'voigt': 9.96, 'reuss': 9.663, 'vrh': 9.811}","{'voigt': 4.984, 'reuss': 4.23, 'vrh': 4.607}"
mp-1185545,CsPbO3,5,Cs1 Pb1 O3,4.480574,4.480574,4.480574,90.0,90.0,90.0,cubic,Pm-3m,1.0528167,-5.014652548,-1.123600706931034,0.208596987666665,False,7.164664583017451,0.0,False,89.94995765714654,,
mp-998306,CsPdBr3,5,Cs1 Pd1 Br3,5.333320029281761,5.332805485895486,5.331624007259514,90.02072608093516,89.99146911841366,90.01612853877451,ortho,Amm2,0.0002148,-3.435415059999999,-1.237524952931034,0.0018728939999970002,False,5.245727348211814,0.0,False,151.6396774825951,,
mp-998307,CsPdBr3,5,Cs1 Pd1 Br3,5.278741727644862,5.279763407400539,5.280560991901531,90.01324860939867,90.0165407865899,89.99626930241172,cubic,Pm-3m,6e-07,-3.435474111999997,-1.237584004931032,0.0018138420000000002,False,5.404974606421774,0.0,False,147.1719038789495,"{'voigt': 33.583, 'reuss': 33.583, 'vrh': 33.583}","{'voigt': 17.669, 'reuss': 16.548000000000002, 'vrh': 17.108}"
mp-1147710,CsPdCl3,5,Cs1 Pd1 Cl3,5.063224,5.063224,5.063224,90.0,90.0,90.0,cubic,Pm-3m,1.3400000000000002e-05,-14.5294970735,-1.226102102999999,0.052206693500005,False,4.422293067537942,0.0,False,129.8020118363025,,
mp-29882,CsPdCl3,20,Cs1 Pd1 Cl3,9.7312279334885,9.731118095281259,9.731146616659247,127.05912018766797,113.76443068141586,89.67807687650145,ortho,Ibam,0.0,-14.5742416415,-1.270846671000001,0.007462125500005001,False,3.607237069947601,1.4655,True,636.5232181476741,,
mp-1207302,CsPdF3,5,Cs1 Pd1 F3,4.414264,4.414264,4.414264,90.0,90.0,90.0,cubic,Pm-3m,0.002556499999999,-13.508429960999996,-2.022305603499995,0.073591717999997,False,5.720528093564077,0.0,False,86.01514171656484,,
mp-1183913,CsPdO3,5,Cs1 Pd1 O3,4.199705,4.199705,4.199705,90.0,90.0,90.0,cubic,Pm-3m,2.1250169,-4.873876142,-0.6893773529310351,0.238677719,False,6.4411604741401,0.0,False,74.07238969648931,,
mp-1183919,CsPrO3,5,Cs1 Pr1 O3,4.754944,4.754944,4.754944,90.0,90.0,90.0,cubic,Pm-3m,2.0000285,-6.231176656000001,-2.123559937264368,0.28134204087499803,False,4.970661286236502,0.0,False,107.50687043553488,,
mp-1213235,CsPtBr3,20,Cs1 Pt1 Br3,5.142124,11.553721,16.00263,90.0,90.0,90.0,ortho,Pnma,0.2696398,-3.392201976,-1.016061566931034,0.254459913999998,False,3.966188112932778,0.0,False,950.7269067461582,,
mp-2647156,CsPuO3,20,Cs1 Pu1 O3,6.295903,6.294651,8.783976,90.0,90.0,90.0,tet,P4/mbm,11.999999,-8.905677414,-2.8095684906810323,0.08095252200000401,False,8.10734636639799,0.0,False,348.11346728457795,,
mp-1183926,CsRbO3,5,Cs1 Rb1 O3,4.559767,4.559767,4.559767,90.0,90.0,90.0,cubic,Pm-3m,7.8e-05,-3.76243748,-0.41780823843103504,0.664383742000002,False,4.665614175855958,0.0,False,94.80428201626086,,
mp-1183971,CsRuO3,5,Cs1 Ru1 O3,4.070421,4.070421,4.070421,90.0,90.0,90.0,cubic,Pm-3m,0.6265599,-6.273033112,-1.269630176931035,0.378263059,False,6.942879627931556,0.0,False,67.44006663288721,,
mp-1068320,CsSO3,5,Cs1 S1 O3,5.038275366549351,5.038275366549351,5.038275320923321,77.32926370986367,77.32926370986367,77.32926742202227,trig,R3m,0.999954799999999,-5.862468573999999,-1.886274233431034,0.18743076050000101,False,2.953092585033321,0.4314,False,119.75336236777552,,
mp-561681,CsSO3,20,Cs1 S1 O3,6.33106207,6.331063589598265,11.60598051,90.0,90.0,120.00000256234341,hex_,P6_3mc,0.0,-6.049899334500001,-2.073704993931036,0.0,True,3.511228283711384,5.111499999999999,True,402.87071972123016,,
mp-1185561,CsSbO3,5,Cs1 Sb1 O3,4.19501,4.19501,4.19501,90.0,90.0,90.0,cubic,Pm-3m,0.0202912,-5.590575104,-1.616252428931034,0.3255781875,False,6.807856048934401,0.0,False,73.8242428170085,,
mp-1213644,CsScBr3,10,Cs1 Sc1 Br3,6.241294260000077,7.900376670162005,7.900346061077257,119.99996035338935,89.99998109651716,89.99999979136261,hex_,P6_3/mmc,1.2800000000000001e-05,-4.440707495000001,-2.012299928931035,0.013903533333331,False,4.110668964981974,0.0,False,337.36449703658815,,