mp_id,formula,sites,composition,a_edge (angstrom),b_edge (angstrom),c_edge (angstrom),alpha_ang (deg),beta_ang (deg),gamma_ang (deg),crystal_system,space_group,total_magnetisation (bohr),energy_per_atom (eV/atom),formation_energy (eV/atom),energy_above_hull (eV/atom),stable,density (g/cc),band_gap (eV),direct_bandgap,volume (cubic-angstrom),bulk_modulus (GPa),shear_modulus (GPa)
mp-22030,EuBO3,20,Eu1 B1 O3,6.2823245326642905,6.504632506346161,6.492541379162426,92.85356107876302,107.48842728458335,106.92276663988645,tri,P-1,24.0000001,-9.460576591999999,-3.098299251833332,0.023315181666667,False,5.849442167330318,0.0,False,239.3371010637984,,
mp-20040,EuBPd3,5,Eu1 B1 Pd3,4.34027797,4.34027385,4.34027282,90.0,90.0,90.0,cubic,Pm-3m,6.8789908,-23.464492655999997,-0.514773107499996,0.07280895046428501,False,9.789848354187022,0.0,False,81.7620375729509,,
mp-510377,EuBRh3,5,Eu1 B1 Rh3,4.22587613,4.22581656,4.22584018,90.0,90.0,90.0,cubic,Pm-3m,5.5711307,-8.275823618,-0.463738158833334,0.024343480000002003,False,10.374865939751064,0.0,False,75.46411296940764,,
mp-1184325,EuBeO3,5,Eu1 Be1 O3,3.642742,3.642742,3.642742,90.0,90.0,90.0,cubic,Pm-3m,5.0,-8.339704094,-2.565422535,0.39830606449999806,False,7.178883535766599,0.0,False,48.33761733293479,,
mp-554518,EuCO3,20,Eu1 C1 O3,5.109651150000104,5.94351265,8.414892390000249,90.0,89.99997449220366,90.0,ortho,Pnma,28.0000011,-9.494560945,-2.6224288605000012,0.0,True,5.509426855134597,0.429299999999999,False,255.5541915816184,,
mp-1183878,EuCdO3,5,Eu1 Cd1 O3,4.163324,4.163324,4.163324,90.0,90.0,90.0,cubic,Pm-3m,6.3226394,-6.894096037999999,-1.675695014,0.5853518035,False,7.187903433173979,0.0,False,72.1640053711473,,
mp-10690,EuCoGe3,5,Eu1 Co1 Ge3,4.288636250822851,4.288636477676658,5.787390126325333,111.7474172846591,111.74741308773848,89.9999951004277,tet,I4mm,6.7529439,-19.125416192,-0.45120687500000206,0.0,True,7.854171519281363,0.0,False,90.66108411043238,,
mp-1075975,EuCoO3,5,Eu1 Co1 O3,3.770115,3.770115,3.770115,90.0,90.0,90.0,cubic,Pm-3m,8.6335973,-8.508877282,-2.055794952000002,0.281767473214285,False,8.022498230674898,0.0,False,53.58753660007628,,
mp-1212757,EuCoO3,20,Eu1 Co1 O3,5.29294207,5.27999014,7.5793064900000005,90.0,90.0,90.0,ortho,Pnma,24.0,-8.661387888999938,-2.20830555899994,0.129256866214348,False,8.118460703334325,0.0,False,211.81646781083614,,
mp-1189762,EuCrO3,20,Eu1 Cr1 O3,5.39511602,5.39569274,7.69309849,90.0,90.0,90.0,ortho,Pnma,35.9999996,-9.752701363500002,-2.7956928835000032,0.11018727949999901,False,7.472887885695216,0.0,False,223.9490845861657,,
mp-754941,EuCrO3,5,Eu1 Cr1 O3,3.879619,3.879619,3.879619,90.0,90.0,90.0,cubic,Pm-3m,8.9966662,-9.675087826,-2.718079346000002,0.187800817000001,False,7.164906612742856,0.0,False,58.39386651041873,,
mp-1075902,EuCuO3,5,Eu1 Cu1 O3,3.825935,3.825935,3.825935,90.0,90.0,90.0,cubic,Pm-3m,6.3010028,-7.823912492,-1.9776721720000001,0.17085285562500002,False,7.813227494755172,0.0,False,56.00318956067427,,
mp-1338333,EuCuO3,20,Eu1 Cu1 O3,8.089775986358646,8.089775986358646,6.304161324508518,70.40592621012283,70.40592621012283,47.04199132202884,mono,C2/c,24.0000001,-7.8196207095000005,-1.973380389500001,0.175144638124999,False,6.228186237801624,0.0,False,281.02284919719716,,
mp-1225144,EuCuSi3,5,Eu1 Cu1 Si3,5.5966725162249755,5.5966725162249755,5.5966725162249755,134.687957729997,134.687957729997,66.01543124343566,tet,I-4m2,6.849954,-6.352213915999999,-0.21955938100000003,0.13381763299999902,False,5.705076603692366,0.0,False,87.25106053541612,,
mp-1183905,EuErO3,5,Eu1 Er1 O3,4.303652,4.303652,4.303652,90.0,90.0,90.0,cubic,Pm-3m,5.985251,-9.080307512000001,-3.140364764000001,0.610768562999998,False,7.65006990830001,0.0,False,79.70974853734867,,
mp-1011260,EuFeO3,10,Eu1 Fe1 O3,5.522427079323185,5.522427079323185,5.522427079323185,120.33491129137833,119.50903296465258,90.13668599644693,ortho,Imma,21.9943269,-9.13360513,-2.413201902000001,0.16293005300000002,False,7.125813298786126,0.0,False,119.22227858254996,,
mp-1075904,EuFeO3,5,Eu1 Fe1 O3,3.865278,3.865278,3.865278,90.0,90.0,90.0,cubic,Pm-3m,10.9853241,-9.079024254,-2.358621026000001,0.21751092899999902,False,7.3556262992492,0.0,False,57.74869900077947,,
mp-504703,EuFeO3,20,Eu1 Fe1 O3,5.498311,5.5879,7.796327,90.0,90.0,90.0,ortho,Pnma,44.0000896,-9.147178386,-2.426775158000002,0.14935679699999901,False,7.093390678602063,0.0,False,239.5344445916085,,
mp-1225128,EuGa3Ag,5,Eu1 Ga3 Ag1,6.245589545366521,6.245589545366521,6.245589545366521,139.53235318264032,139.53235318264032,58.564046667543195,tet,I-4m2,6.946192,-19.309955572,-0.46893803000000306,0.0,True,7.660098194618395,0.0,False,101.66903805873173,,
mp-1225152,EuGa3Cu,5,Eu1 Ga3 Cu1,6.089450217718445,6.089450217718445,6.089450217718445,139.64844254926027,139.64844254926027,58.38747938077382,tet,I-4m2,6.9495629999999995,-5.10604817200001,-0.41172684150001104,0.0,True,7.5183693643355785,0.0,False,93.79641197329519,,
mp-1078429,EuGa3Pd,10,Eu1 Ga3 Pd1,6.0694182617962396,6.0694182617962396,5.91717711,90.0,90.0,116.47568079603576,ortho,Cmcm,13.9218176,-19.876443798,-0.714510963,0.0,True,7.958261345863952,0.0,False,195.1154877841586,,
mp-1206706,EuGaO3,10,Eu1 Ga1 O3,3.6729652524152736,3.6729652524152736,11.597998,90.0,90.0,119.9999865340929,hex_,P6_3/mmc,12.0056604,-8.324854689,-2.692836498500001,0.16424811449999902,False,6.609808039143785,0.0,False,135.502516149272,,
mp-1212729,EuGaO3,20,Eu1 Ga1 O3,5.463648,5.623637,7.686061,90.0,90.0,90.0,ortho,Pnma,24.0013644,-8.315547044999999,-2.683528854500001,0.17355575850000002,False,7.5851187439427274,0.0,False,236.15862870516224,,
mp-1068715,EuGe3Ir,5,Eu1 Ge3 Ir1,5.973193328912182,5.973193328912182,5.973193328912182,136.02986796537877,136.02986796537877,63.93416226594518,tet,I4mm,6.7956024,-7.1945912960000005,-0.595465364000001,0.0,True,9.209099647243539,0.0,False,101.35525791104978,,
mp-1068422,EuGe3Pd,5,Eu1 Ge3 Pd1,5.958681488486783,5.958681488486783,5.958681488486783,135.99714543217868,135.99714543217868,63.98474845836651,tet,I4mm,6.8883315,-6.448426665999998,-0.5810112079999981,0.0,True,7.851666358917938,0.0,False,100.73293533155753,,
mp-19763,EuGe3Pt,5,Eu1 Ge3 Pt1,4.482715624304767,4.482712873395345,5.92924445675181,112.21091846995598,112.21092864071983,90.00000331759219,tet,I4mm,6.8489318,-6.694285784000002,-0.6486200240000021,0.0,True,9.317079162010915,0.0,False,100.69158145656311,,
mp-1069658,EuGe3Rh,5,Eu1 Ge3 Rh1,5.922378063150951,5.922378063150951,5.922378063150951,136.28460572776453,136.28460572776453,63.540635924253266,tet,I4mm,6.8133932999999995,-21.522921138,-0.668312320999999,0.0,True,8.018124758757388,0.0,False,97.91384627319637,,
mp-865181,EuGeO3,5,Eu1 Ge1 O3,3.8399125799990594,3.8367879615043217,3.841179292722228,90.00353638718138,90.00233110516844,90.01420425504352,cubic,Pm-3m,6.807207,-8.551858303999998,-2.600853746999999,0.092227579999999,False,7.998798443526119,0.0,False,56.59182512686955,"{'voigt': 167.47, 'reuss': 167.47, 'vrh': 167.47}","{'voigt': 103.033, 'reuss': 100.586, 'vrh': 101.809}"
mp-581575,EuGeS3,30,Eu1 Ge1 S3,8.41611227012746,8.485661837734717,11.770122836110694,69.18407748706261,80.7001319524869,75.42701155208103,tri,P-1,42.0000004,-6.824023990333334,-1.3587802958333342,0.0,True,4.216569380496865,0.0,True,758.0085476455868,,
mp-644246,EuH3Pd,5,Eu1 H3 Pd1,3.78882214,3.79214528,3.79250035,90.0,90.0,90.0,cubic,Pm-3m,6.9417748,-14.960148244,-0.590813538249999,0.0,True,7.966230301794582,0.0,False,54.489749979605094,"{'voigt': 86.912, 'reuss': 86.912, 'vrh': 86.912}","{'voigt': 38.111, 'reuss': 38.11, 'vrh': 38.11}"
mp-1078670,EuHO3,10,Eu1 H1 O3,3.765044999999999,5.689731,5.885381476747451,65.91697233588732,90.0,90.0,mono,P2_1/m,7.983575,-7.440352081999999,-1.734919808250001,0.371667368249999,False,5.798620523889233,0.0,False,115.10281361410436,,
mp-753781,EuHfO3,5,Eu1 Hf1 O3,4.097683320105714,4.09766316020076,4.097713690226168,89.9989854338713,89.99935177682478,90.00050728279197,cubic,Pm-3m,6.9999999,-10.737502918000008,-3.719666126000007,0.0,True,9.133639660900897,0.479599999999999,True,68.80440725408809,"{'voigt': 165.391, 'reuss': 165.391, 'vrh': 165.391}","{'voigt': 98.769, 'reuss': 91.295, 'vrh': 95.032}"
mp-1190059,EuHfS3,20,Eu1 Hf1 S3,6.60695663,7.07850207,9.64170674,90.0,90.0,90.0,ortho,Pnma,27.9999917,-23.6405126545,-2.0850535841875,0.0,True,6.284678757042116,0.1287,True,450.9171333105742,,
mp-1184359,EuHgO3,5,Eu1 Hg1 O3,4.240331,4.240331,4.240331,90.0,90.0,90.0,cubic,Pm-3m,6.5805648,-6.493105982,-1.404772588500002,0.571836682999999,False,8.723865115951115,0.0,False,76.2428771504522,,
mp-1184304,EuInO3,5,Eu1 In1 O3,4.191291,4.191291,4.191291,90.0,90.0,90.0,cubic,Pm-3m,6.0000798,-7.791177356,-2.212943621333334,0.5066763509999991,False,7.099259642816595,0.0,False,73.62807472763184,,
mp-1212795,EuInO3,20,Eu1 In1 O3,5.712293,5.996883,8.162569,90.0,90.0,90.0,ortho,Pnma,24.0002801,-8.079665279,-2.5014315443333333,0.21818842799999902,False,7.477451054785569,0.0,False,279.6165782496858,,
mp-1212980,EuInO3,30,Eu1 In1 O3,6.419938367971401,6.419936871967096,12.313653530052353,90.00033456207804,89.99982850355339,120.00015066323634,hex_,P6_3cm,36.0000001,-8.1493065,-2.571072765333334,0.14854720700000001,False,7.13557929045729,0.0,False,439.51987488208255,,
mp-1184445,EuIrO3,5,Eu1 Ir1 O3,4.010484,4.010484,4.010484,90.0,90.0,90.0,cubic,Pm-3m,6.1412399,-8.687974162,-1.8938883400000002,0.39609971724999904,False,10.095859304037548,0.0,False,64.50455212341306,,
mp-1184309,EuLuO3,5,Eu1 Lu1 O3,4.257594,4.257594,4.257594,90.0,90.0,90.0,cubic,Pm-3m,6.0079449,-9.165762474000001,-3.235025997333335,0.549452066624997,False,8.066880567105853,0.0,False,77.17786059059614,,
mp-1225137,EuMgGa3,5,Eu1 Mg1 Ga3,4.31164196,4.31164196,6.443302586451395,70.45280835404728,70.45280835404728,90.0,tet,I-4m2,7.0127319,-4.619867373999999,-0.41929337450000004,0.0,True,6.065248181018386,0.0,False,105.52492456206559,,
mp-972931,EuMgO3,5,Eu1 Mg1 O3,3.9226900000000002,3.9226900000000002,3.9226900000000002,90.0,90.0,90.0,cubic,Pm-3m,5.0031497,-7.882311952,-2.529818963000001,0.408090983499997,False,6.169683609995452,0.0,False,60.3603799640011,,
mp-1099619,EuMnO3,5,Eu1 Mn1 O3,3.876972,3.876972,3.876972,90.0,90.0,90.0,cubic,Pm-3m,9.9954965,-9.462677474,-2.603875429586208,0.12567077068749902,False,7.263423334369363,0.0,False,58.274424527282676,,
mp-20614,EuMnO3,20,Eu1 Mn1 O3,5.40858695,5.41134345,7.67572013,90.0,90.0,90.0,ortho,Pnma,39.9999999,-9.5115735725,-2.6527715280862063,0.076774672187498,False,7.536527630141269,0.0,False,224.65083958060256,,
mp-1184411,EuMoO3,5,Eu1 Mo1 O3,4.100221,4.100221,4.100221,90.0,90.0,90.0,cubic,Pm-3m,8.9849788,-9.67815512,-2.4826261119999993,0.149660001249998,False,7.128128081561703,0.0,False,68.93214563075512,,
mp-1078341,EuNbO3,10,Eu1 Nb1 O3,5.709876910901506,5.706059608803914,5.7060640316607945,60.57379755107369,59.97948554082415,59.979590795281865,ortho,Imma,13.4203772,-10.190223450000001,-3.143563456000004,0.0,True,7.369784191063378,0.0,False,131.97665110991449,,
mp-755572,EuNbO3,5,Eu1 Nb1 O3,4.063504103259971,4.063226622603008,4.0628447253587385,90.01351306596185,90.03716071635594,90.05954233615252,cubic,Pm-3m,7.1246712,-10.166607579,-3.119947585000003,0.023615871000000004,False,7.24970348697676,0.0,False,67.08132537327681,,
mp-974769,EuNiGe3,5,Eu1 Ni1 Ge3,5.783994394665629,5.783994394665629,5.783994394665629,136.02053060421204,136.02053060421204,63.94859618809994,tet,I4mm,6.8120356,-6.509523508000001,-0.5220570760000011,0.0,True,7.730846678032374,0.0,False,92.05583106234701,,
mp-20718,EuNiO3,20,Eu1 Ni1 O3,5.32951865,5.32027611,7.58382395,90.0,90.0,90.0,ortho,Pnma,27.9999987,-8.257220939000002,-2.074794617000002,0.136275027166664,False,7.989517887966484,0.0,False,215.03561772695772,,
mp-977412,EuNiO3,5,Eu1 Ni1 O3,3.792445,3.792445,3.792445,90.0,90.0,90.0,cubic,Pm-3m,6.9728771,-8.185809348000001,-2.003383026000001,0.207686618166665,False,7.874320900829366,0.0,False,54.54536765826052,,
mp-1213363,EuNpO3,20,Eu1 Np1 O3,5.94021533,6.13438638,8.55275324,90.0,90.0,90.0,ortho,Pnma,40.0,-11.035051473500008,-3.419096551250009,0.0,True,9.312659001434982,0.0,False,311.6587018232607,,
mp-977370,EuOsO3,5,Eu1 Os1 O3,3.988748,3.988748,3.988748,90.0,90.0,90.0,cubic,Pm-3m,5.7933101,-9.311723178,-2.039850706000001,0.28726596400000104,False,10.209815231625683,0.0,False,63.46142186546037,,
mp-20217,EuPS3,20,Eu1 P1 S3,7.55293914,6.644830839874051,11.295631944358034,55.653305227904816,90.0,90.0,mono,P2_1/c,28.0000004,-15.6136774785,-1.288086223782738,0.0,True,3.961132607857608,0.8440000000000001,False,468.058913402196,,
mp-20742,EuPSe3,20,Eu1 P1 Se3,7.80256507,6.991960329693252,11.823138470503043,55.42852350818498,90.0,90.0,mono,P2_1/c,28.0000005,-19.1985621025,-1.1070341585327381,0.0,True,5.250249069475029,0.493299999999999,False,531.1167416469148,,
mp-1184348,EuPbO3,5,Eu1 Pb1 O3,4.284826,4.284826,4.284826,90.0,90.0,90.0,cubic,Pm-3m,6.8545549999999995,-7.768094994,-1.999166594000001,0.42481014325000405,False,8.594428006411011,0.0,False,78.6682649547427,,
mp-1184369,EuPdO3,5,Eu1 Pd1 O3,4.029298,4.029298,4.029298,90.0,90.0,90.0,cubic,Pm-3m,6.3657468,-7.853212588,-1.79083724,0.307972339999999,False,7.777221409122811,0.0,False,65.4166296222544,,
mp-976258,EuPtO3,5,Eu1 Pt1 O3,4.066685,4.066685,4.066685,90.0,90.0,90.0,cubic,Pm-3m,6.4267308,-7.9838324400000005,-1.743206790000001,0.411219744124993,False,9.75383455009428,0.0,False,67.25453921150796,,
mp-976320,EuReO3,5,Eu1 Re1 O3,4.001367,4.001367,4.001367,90.0,90.0,90.0,cubic,Pm-3m,6.6650171,-9.868711476,-2.352689648500002,0.254660152346152,False,10.009250803769334,0.0,False,64.0656384268225,,
mp-21076,EuRh3C,5,Eu1 Rh3 C1,4.223061,4.223061,4.223061,90.0,90.0,90.0,cubic,Pm-3m,6.2524081,-8.526183846,-0.20424364250000002,0.0608938165,False,10.421843583451523,0.0,False,75.3151011865486,,
mp-19801,EuRhO3,20,Eu1 Rh1 O3,5.3652239,5.75539092,7.7255287500000005,90.0,90.0,90.0,ortho,Pnma,24.0050569,-8.705100888500002,-2.205840328500002,0.065275577749993,False,8.432787516285554,0.0,False,238.55630034079877,,
mp-866036,EuRuO3,5,Eu1 Ru1 O3,3.9836350112516583,3.9850970061886826,3.9853130051856653,89.99935286883775,90.00580944159407,90.00635604240262,cubic,Pm-3m,4.8912378,-9.041606374,-2.160326880000001,0.21820725274999403,False,7.900983963296029,0.0,False,63.26752854159861,,
mp-976284,EuSbO3,5,Eu1 Sb1 O3,4.218665,4.218665,4.218665,90.0,90.0,90.0,cubic,Pm-3m,6.8473223,-8.157579887999999,-2.305380654,0.29307437550000304,False,7.115493196307717,0.0,False,75.0801479185892,,
mp-22487,EuScO3,20,Eu1 Sc1 O3,5.600668,5.815825,8.023095,90.0,90.0,90.0,ortho,Pnma,24.0004153,-9.818837689999999,-3.525944883,0.181007715875001,False,6.224964772248111,0.0,False,261.33230177110755,,
mp-755177,EuSeO3,10,Eu1 Se1 O3,4.431882116893258,5.423626960920476,6.449863472485288,90.0003774172746,106.727396360559,90.00187766271225,mono,P2_1/m,13.9999001,-7.976394935,-2.250813653468751,0.0,True,6.238942248256981,0.08659999999999901,False,148.47427375094398,,
mp-1069707,EuSi3Ir,5,Eu1 Si3 Ir1,5.818493813531728,5.818493813531728,5.818493813531728,137.0997678020197,137.0997678020197,62.28458223373051,tet,I4mm,6.6934462,-7.801438645999999,-0.7209386090000011,0.0,True,7.888610643111933,0.0,False,90.18536197722474,,
mp-1225162,EuSi3Ni,5,Eu1 Si3 Ni1,5.607886524603594,5.607886524603594,5.607886524603594,136.7929673542864,136.7929673542864,62.75674869195381,tet,I4mm,6.7301044,-6.994201491999999,-0.525360955,0.0,True,5.998368144027215,0.0,False,81.64154657979655,,
mp-1225221,EuSi3Ni,5,Eu1 Si3 Ni1,5.719200948777897,5.719200948777897,5.719200948777897,137.7193048391714,137.7193048391714,61.333169235245954,tet,I-4m2,6.8928269,-6.8653111639999995,-0.396470627,0.128890327999999,False,5.849562112741979,0.0,False,83.7184122152712,,
mp-1068807,EuSi3Rh,5,Eu1 Si3 Rh1,5.770062404424383,5.770062404424383,5.770062404424383,137.19891269915738,137.19891269915738,62.132143378249594,tet,I4mm,6.7430028,-18.526622636,-0.730941609999999,0.0,True,6.425854497920238,0.0,False,87.63534432378637,,
mp-866030,EuSiO3,5,Eu1 Si1 O3,3.7177350000000002,3.7177350000000002,3.7177350000000002,90.0,90.0,90.0,cubic,Pm-3m,6.9115957,-9.182717856,-3.071255264,0.25598193966667004,False,7.369525124378975,0.0,False,51.38487331369103,,
mp-862606,EuSnO3,5,Eu1 Sn1 O3,4.07580535,4.0760898,4.07609181,90.0,90.0,90.0,cubic,Pm-3m,6.9237419,-8.37124034,-2.542926983000001,0.13844741162499602,False,7.814337063803226,0.0,False,67.71753422187594,,
mp-1184447,EuTcO3,5,Eu1 Tc1 O3,3.967972,3.967972,3.967972,90.0,90.0,90.0,cubic,Pm-3m,6.7845308,-9.522178676,-2.4236519010000013,0.146448492124998,False,7.919622357468801,0.0,False,62.47493265931672,,
mp-1079111,EuTiO3,10,Eu1 Ti1 O3,5.525466335027672,5.5254042378186154,5.525406840325221,89.08324079612505,120.5302152548701,120.53019434724493,tet,I4/mcm,13.9952801,-10.164019363,-3.558521973666669,0.0,True,6.956660393444921,0.0,False,118.31253652456535,,
mp-22246,EuTiO3,5,Eu1 Ti1 O3,3.9038778,3.90388695,3.9038778,90.0,90.0,90.0,cubic,Pm-3m,6.9721765,-10.1548811515,-3.549383762166668,0.009138211499999,False,6.916906578608999,0.0,False,59.49625945750218,,
mp-1178346,EuTmO3,20,Eu1 Tm1 O3,6.01765,8.242911,5.804322,90.0,90.0,90.0,ortho,Pnma,24.0001357,-9.45700875,-3.5341094680000023,0.23351326224999902,False,8.510488417104973,0.0,False,287.91151356357466,,
mp-1184353,EuTmO3,5,Eu1 Tm1 O3,4.268535,4.268535,4.268535,90.0,90.0,90.0,cubic,Pm-3m,6.0018311,-9.106493704,-3.183594422000003,0.5840283082499991,False,7.876204539246209,0.0,False,77.77437689449803,,
mp-1213318,EuUO3,20,Eu1 U1 O3,5.943666,6.174155,8.548967,90.0,90.0,90.0,ortho,Pnma,36.0000002,-10.7648337575,-3.4801527695,0.019482792500015,False,9.273182759053235,0.0,False,313.7224264316142,,
mp-1178351,EuVO3,20,Eu1 V1 O3,5.44924128,5.44359745,7.68337572,90.0,90.0,90.0,ortho,Pnma,31.9999993,-9.803838922500002,-2.9606587225000043,0.029201402624998003,False,7.312098681075076,0.0,False,227.9156307793317,,
mp-756315,EuVO3,5,Eu1 V1 O3,3.8467932285818,3.851362766432599,3.8469746388457544,90.03596076510553,90.11370437313616,90.0371796089971,cubic,Pm-3m,7.9999996,-9.789797889000003,-2.9466176890000053,0.043242436124998,False,7.310121614478355,0.0,False,56.99431798498433,,
mp-1184400,EuWO3,5,Eu1 W1 O3,4.10016,4.10016,4.10016,90.0,90.0,90.0,cubic,Pm-3m,9.0000361,-10.021163390000002,-2.403138358000001,0.23594785674999103,False,9.246005424573594,0.0,False,68.92906911488409,,
mp-1225768,EuZnIn3,5,Eu1 Zn1 In3,6.783495083613904,6.783495083613904,6.783495083613904,139.33175241266943,139.33175241266943,58.86935700557405,tet,I4mm,6.9002566,-4.247107858,-0.28203250699999904,0.023140849090907002,False,7.104926467825468,0.0,False,131.30828114766007,,
mp-1106293,EuZrO3,20,Eu1 Zr1 O3,5.745465810001851,5.8447403300006595,8.165923400006559,90.0000538032882,90.0001131014157,90.00000107174185,ortho,Pnma,0.0,-10.376129998500002,-3.640190886500001,0.0,True,7.053166080151789,0.18659999999999902,True,274.21787904044083,,
mp-1178354,EuZrO3,40,Eu1 Zr1 O3,8.367172,8.367172,8.367172,90.0,90.0,90.0,cubic,P2_13,55.9982686,-10.291737049249999,-3.55579793725,0.08439294925000701,False,6.603493935872536,0.46629999999999905,True,585.7820910571171,,
mp-771055,EuZrO3,5,Eu1 Zr1 O3,4.197333,4.197333,4.197333,90.0,90.0,90.0,cubic,Pm-3m,7.0004074,-10.282810812,-3.546871699999999,0.093319186500007,False,6.538823412138973,0.38770000000000004,True,73.94695196343135,"{'voigt': 154.842, 'reuss': 154.842, 'vrh': 154.842}","{'voigt': 87.585, 'reuss': 79.504, 'vrh': 83.545}"
mp-1189927,EuZrS3,20,Eu1 Zr1 S3,6.5652183,7.15394128,9.6658817,90.0,90.0,90.0,ortho,Pnma,4.2647362,-8.331561390000001,-2.081383140500001,0.0,True,4.965501930606425,0.145299999999999,True,453.9792656740195,,
mp-1106192,EuZrSe3,20,Eu1 Zr1 Se3,3.971888,8.913961,14.46718,90.0,90.0,90.0,ortho,Pnma,27.8784398,-22.707599892999998,-1.866528830437499,0.024710739000003003,False,6.225299332672766,0.0,False,512.214193101151,,
mp-1212650,Fe3CoN,5,Fe3 Co1 N1,3.675335,3.675335,3.675335,90.0,90.0,90.0,cubic,Pm-3m,7.2594902,-8.230755656,-0.054404036999999,0.10136432406249701,False,8.043184855438946,0.0,False,49.64674626544322,,