mp_id,formula,sites,composition,a_edge (angstrom),b_edge (angstrom),c_edge (angstrom),alpha_ang (deg),beta_ang (deg),gamma_ang (deg),crystal_system,space_group,total_magnetisation (bohr),energy_per_atom (eV/atom),formation_energy (eV/atom),energy_above_hull (eV/atom),stable,density (g/cc),band_gap (eV),direct_bandgap,volume (cubic-angstrom),bulk_modulus (GPa),shear_modulus (GPa)
mp-3105,LuBPd3,5,Lu1 B1 Pd3,4.286119,4.286119,4.286119,90.0,90.0,90.0,cubic,Pm-3m,0.001127,-23.535634639643103,-0.674115597476435,0.11490506962962801,False,10.650757092134663,0.0,False,78.73950385525583,"{'voigt': 148.81, 'reuss': 148.81, 'vrh': 148.81}","{'voigt': 34.238, 'reuss': 16.45, 'vrh': 25.344}"
mp-3717,LuBRh3,5,Lu1 B1 Rh3,4.13754512,4.13753698,4.13750443,90.0,90.0,90.0,cubic,Pm-3m,0.0386781,-24.455079142,-0.888095087833332,0.0,True,11.592776418745979,0.0,False,70.83095591674123,"{'voigt': 188.744, 'reuss': 188.744, 'vrh': 188.744}","{'voigt': 93.96, 'reuss': 87.328, 'vrh': 90.644}"
mp-1176501,LuBiO3,10,Lu1 Bi1 O3,6.045355795709381,6.045355795709381,6.045355523439295,58.67412312884563,58.67412312884563,58.674132356467204,trig,R3c,0.0094215,-7.506134075,-2.855013119333334,0.027742273624999002,False,9.46935658189858,3.1586,False,151.4912945230261,,
mp-772801,LuBiO3,10,Lu1 Bi1 O3,6.108581631238629,6.108581631238629,6.108581437144388,57.68195006654029,57.68195006654029,57.681948376656855,trig,R-3,0.0002293,-7.475031207000001,-2.823910251333335,0.05884514162499901,False,9.400974309080118,2.3018,True,152.59323552308715,,
mp-1222293,LuBiTe3,5,Lu1 Bi1 Te3,10.902662283536072,10.902662283536072,10.902662380043372,23.117270673661253,23.117270673661253,23.117273991816095,trig,R3m,0.0043869,-4.58699091,-1.018663021333333,0.023043487500004,False,7.260919716699134,1.104299999999999,False,175.35161681870088,,
mp-550950,LuCoO3,20,Lu1 Co1 O3,5.067229,5.450336,7.305639,90.0,90.0,90.0,ortho,Pnma,7.9997979,-7.939461358,-2.639663920333333,0.037204011839285005,False,9.280036319735288,0.0,False,201.7678731337942,,
mp-755471,LuCrO3,20,Lu1 Cr1 O3,5.13477912,5.48498586,7.45708665,90.0,90.0,90.0,ortho,Pnma,11.9999995,-9.0573971395,-3.253673551833335,0.0,True,8.695893111836789,2.5313,False,210.0228117255138,,
mp-1193395,LuFeO3,30,Lu1 Fe1 O3,5.9620164542024074,5.9620198556893875,11.581593891907895,89.9984815041002,89.99847915140374,119.995884492746,hex_,P6_3cm,30.026162,-8.468754416333333,-2.901636080666666,0.013801381291665001,False,7.791219595066053,0.0,False,356.53614196145696,,
mp-22588,LuFeO3,20,Lu1 Fe1 O3,5.240991,5.581437,7.665847,90.0,90.0,90.0,ortho,Pnma,20.0015093,-8.4465166745,-2.879398338833334,0.036039123124998004,False,8.258442678612468,1.6083,True,224.2433578745118,,
mp-1185488,LuGaO3,5,Lu1 Ga1 O3,3.766607409999999,3.766607409999999,3.766607409999999,90.0,90.0,90.0,cubic,Pm-3m,0.0,-7.234115358333341,-2.7553820601666743,0.46455023100000803,False,9.095011277478335,3.027399999999999,False,53.43810750805216,,
mp-755342,LuGaO3,10,Lu1 Ga1 O3,3.457911449163642,3.457911449163642,11.705323,90.0,90.0,119.99998946096754,hex_,P6_3/mmc,0.0023094,-7.67745922,-3.198725921833333,0.021206369333349,False,8.019411365090507,2.5134,False,121.21093888475164,,
mp-755792,LuGaO3,20,Lu1 Ga1 O3,5.208062,5.538213,7.584194,90.0,90.0,90.0,ortho,Pnma,0.0009354,-7.6441232365000005,-3.165389938333334,0.054542352833348004,False,8.887079570664806,3.9739999999999993,True,218.7536126207889,,
mp-768505,LuGaO3,30,Lu1 Ga1 O3,5.902617442166949,5.902615851562425,11.574137250001703,89.99999338083255,89.99995015512279,119.9993873073996,hex_,P6_3cm,0.0,-7.698665589333342,-3.219932291166676,0.0,True,8.350153593190138,2.8917,False,349.22964111405213,,
mp-1185514,LuGeO3,5,Lu1 Ge1 O3,3.876011,3.876011,3.876011,90.0,90.0,90.0,cubic,Pm-3m,0.007672699999999001,-7.058339924,-2.260620259333334,0.811421797062525,False,8.429584418052782,0.0,False,58.23110114881499,,
mp-1232147,LuMgSe3,20,Lu1 Mg1 Se3,8.15340639707491,11.84292776,7.2737404321127865,90.0,130.47385082528857,90.0,mono,C2/m,1.5e-06,-4.7352018205,-1.407223440239584,0.29555850249999804,False,5.422209156157342,0.0,False,534.2821821273964,,
mp-1237926,LuMgSe3,10,Lu1 Mg1 Se3,7.310461666897105,7.310461666897105,6.857014549522408,76.04081409858101,76.04081409858101,118.9839127436189,mono,C2/m,0.0014887,-4.701769016,-1.373790635739583,0.328991306999999,False,5.135447972186602,0.0,False,282.05813354481273,,
mp-18808,LuMnO3,30,Lu1 Mn1 O3,6.0056756965349285,6.005585934006154,11.312372590212647,89.9993034704633,90.00043619103889,120.00119631076038,hex_,P6_3cm,23.9999987,-8.815923649666669,-3.11040649758621,0.0,True,7.836057358160109,0.0,False,353.34289219579927,,
mp-21125,LuMnO3,20,Lu1 Mn1 O3,5.241762,5.774885,7.443986,90.0,90.0,90.0,ortho,Pnma,16.0016329,-8.765617151499999,-3.06009999941954,0.050306498166669,False,8.19174681149193,0.44819999999999904,False,225.3337197434038,,
mp-1079715,LuNiGe3,10,Lu1 Ni1 Ge3,10.958205597650602,10.958205597650602,4.046065,90.0,90.0,158.52510572475836,ortho,Cmmm,0.018639299999999002,-5.346626124,-0.5124445843333331,0.013156879999998001,False,8.431608066947634,0.0,False,177.8704346684173,,
mp-1105866,LuNiO3,20,Lu1 Ni1 O3,5.524087,5.135201,8.978869308187528,55.32949236911429,90.0,90.0,mono,P2_1/c,4.0238566,-7.563221223499999,-2.534079793833333,0.016295357291666,False,8.93078999991922,0.099499999999999,False,209.4798371692059,,
mp-19327,LuNiO3,20,Lu1 Ni1 O3,5.05126451004446,5.467334950359395,7.271698800522524,90.00129829340582,90.00047975675122,90.00007984179001,ortho,Pnma,4.0000014,-7.5646023904999975,-2.535460960833331,0.014914190291668001,False,9.315805899042624,0.0,False,200.82217848352906,,
mp-1185498,LuNpO3,5,Lu1 Np1 O3,4.198436,4.198436,4.198436,90.0,90.0,90.0,cubic,Pm-3m,3.999996,-9.570101218000001,-3.107431188083334,0.5750024781874961,False,10.320754811804411,0.049299999999999004,False,74.00526393698391,,
mp-1185490,LuPdO3,5,Lu1 Pd1 O3,3.963751,3.963751,3.963751,90.0,90.0,90.0,cubic,Pm-3m,0.0044716,-6.662980225999999,-1.753889770333332,0.6842253166249981,False,8.782822082118303,0.0,False,62.275768249188445,,
mp-1185529,LuReO3,5,Lu1 Re1 O3,3.956277,3.956277,3.956277,90.0,90.0,90.0,cubic,Pm-3m,0.015264799999999001,-8.304095138,-1.941358202833333,0.986050596600005,False,10.972236067625172,0.0,False,61.92415282345703,,
mp-10699,LuRh3C,5,Lu1 Rh3 C1,4.11552588,4.11552588,4.11552588,90.0,90.0,90.0,cubic,Pm-3m,1.38e-05,-7.720696492000002,-0.5520411808333361,0.0,True,11.808287641005988,0.0,False,69.7069388222414,"{'voigt': 205.343, 'reuss': 205.343, 'vrh': 205.343}","{'voigt': 85.754, 'reuss': 85.397, 'vrh': 85.576}"
mp-1205366,LuRhO3,20,Lu1 Rh1 O3,5.15042715,5.66071551,7.48237152,90.0,90.0,90.0,ortho,Pnma,0.0,-7.958022456500001,-2.612046788833334,0.0,True,9.922030465179358,1.0887,True,218.14931123596662,,
mp-973681,LuRhO3,5,Lu1 Rh1 O3,3.924034,3.924034,3.924034,90.0,90.0,90.0,cubic,Pm-3m,0.0009555999999990001,-7.234465068,-1.888489400333333,0.7235573885000001,False,8.955629658015384,0.0,False,60.42244361076046,"{'voigt': 189.552, 'reuss': 189.552, 'vrh': 189.552}","{'voigt': 70.29, 'reuss': -12.919, 'vrh': 28.686}"
mp-1207093,LuRu3C,5,Lu1 Ru3 C1,4.1024656,4.10244827,4.10244827,90.0,90.0,90.0,cubic,Pm-3m,3.1200000000000006e-05,-8.594351208,-0.27963909483333504,0.0,True,11.78909132249454,0.0,False,69.04483166261245,,
mp-772180,LuScO3,30,Lu1 Sc1 O3,6.109015092296628,6.109015092296628,12.114255,90.0,90.0,119.99999016974549,hex_,P6_3cm,0.00012000000000000002,-9.145822131333334,-4.006214216666667,0.040043889166662,False,6.817693970880811,3.0848,True,391.5342710979174,,
mp-776593,LuScO3,20,Lu1 Sc1 O3,5.379162,5.689607,7.942178,90.0,90.0,90.0,ortho,Pnma,0.0,-9.122406674,-3.982798759333333,0.063459346499996,False,7.321153565980165,4.606299999999999,False,243.07288147061354,,
mp-768293,LuSeO3,40,Lu1 Se1 O3,12.428271,5.857039,8.658127517178123,74.18797172804811,90.0,90.0,mono,P2_1/c,0.0012402,-7.1159742635,-2.543677874302084,0.03757851950781,False,6.614209923441077,1.7049999999999992,False,606.401787175432,,
mp-973655,LuSiO3,5,Lu1 Si1 O3,3.680431999999999,3.680431999999999,3.680431999999999,90.0,90.0,90.0,cubic,Pm-3m,0.0019206,-7.67381671,-2.715639010333333,0.878017376874995,False,8.362076567951654,0.0,False,49.85358501080958,,
mp-754231,LuTiO3,20,Lu1 Ti1 O3,5.264573,5.647997,7.620271,90.0,90.0,90.0,ortho,Pnma,3.9931144,-9.106556190000001,-3.6543436930000013,0.06194142325000301,False,7.9392844179742745,0.0,False,226.5833669216115,,
mp-754597,LuTlO3,20,Lu1 Tl1 O3,5.6952,5.8075600000000005,8.425783,90.0,90.0,90.0,ortho,Pnma,0.057764499999999004,-6.875757564500001,-2.528349047500002,0.083761391624997,False,10.18540535193216,1.0776,True,278.6845902675024,,
mp-973536,LuUO3,5,Lu1 U1 O3,4.192118,4.192118,4.192118,90.0,90.0,90.0,cubic,Pm-3m,3.0,-9.180594136,-3.049198040333332,0.7046519252701591,False,10.390680186641083,0.0,False,73.67166685696586,"{'voigt': 151.069, 'reuss': 151.069, 'vrh': 151.069}","{'voigt': 91.787, 'reuss': 80.132, 'vrh': 85.959}"
mp-755583,LuVO3,20,Lu1 V1 O3,5.241979,5.658672,7.593422,90.0,90.0,90.0,ortho,Pnma,7.9962171,-9.013287189500002,-3.323391881833334,0.005773750249996001,False,8.077266464533315,1.572499999999999,False,225.24094157379778,,
mp-973486,LuVO3,5,Lu1 V1 O3,3.853611,3.853611,3.853611,90.0,90.0,90.0,cubic,Pm-3m,1.9970962,-8.455128082,-2.765232774333333,0.563932857749998,False,7.947822037687013,0.0,False,57.22734779374253,,
mp-1206514,Mg3AsN,5,Mg3 As1 N1,4.20628578,4.20628578,4.20628578,90.0,90.0,90.0,cubic,Pm-3m,0.0,-8.16520575,-0.896367267250001,0.0,True,3.6111663522785493,2.281799999999999,False,74.42114156493827,,
mp-2647001,Mg3BiSb,5,Mg3 Bi1 Sb1,4.66434,4.664340925012236,7.360345,90.0,90.0,119.99999343976826,trig,P3m1,0.0,-2.878640086,-0.296550967,0.006847672124998001,False,4.83337560715199,0.1607,False,138.67855834589432,,
mp-1080847,Mg3SbN,5,Mg3 Sb1 N1,4.34531858,4.34531858,4.34531858,90.0,90.0,90.0,cubic,Pm-3m,0.0,-4.177674120000001,-0.705936314,0.0,True,4.223462046461523,1.623399999999999,False,82.0474083873499,,
mp-10185,Mg3ZnC,5,Mg3 Zn1 C1,4.406931,4.406931,4.406931,90.0,90.0,90.0,cubic,Pm-3m,1.3000000000000001e-05,-2.883171018,0.19279281150000002,0.23529440541999902,False,2.916752511512133,0.0,False,85.58718692460187,"{'voigt': 62.165, 'reuss': 62.165, 'vrh': 62.165}","{'voigt': 37.876, 'reuss': 36.623, 'vrh': 37.249}"
mp-1210575,MgAgF3,5,Mg1 Ag1 F3,4.399469,4.399469,4.399469,90.0,90.0,90.0,cubic,Pm-3m,0.0009352,-3.628846704,-1.587277784833332,1.195872592000001,False,3.688900357296797,0.0,False,85.15316324173547,,
mp-998358,MgAgF3,5,Mg1 Ag1 F3,3.9882169999999992,3.9882169999999992,3.9882169999999992,90.0,90.0,90.0,cubic,Pm-3m,2.03e-05,-4.79154036,-2.749971440833332,0.033178936000001005,False,4.951780314335952,2.375099999999999,False,63.436080433127024,,
mp-998418,MgAgF3,10,Mg1 Ag1 F3,5.526014784944826,5.526014784944826,5.526013837286113,59.86917556358458,59.86917556358458,59.86918219792704,trig,R-3c,0.0,-4.806576408,-2.765007488833332,0.018142888000001002,False,5.280776296610234,2.1901,False,118.96793829688532,,
mp-1185841,MgAlO3,5,Mg1 Al1 O3,3.6743040000000002,3.6743040000000002,3.6743040000000002,90.0,90.0,90.0,cubic,Pm-3m,0.3339832,-6.581299996,-2.537314224,0.42934857399999604,False,3.323581534958173,0.0,False,49.60497747034924,,
mp-1185693,MgBO3,5,Mg1 B1 O3,3.357238,3.357238,3.357238,90.0,90.0,90.0,cubic,Pm-3m,0.0040551,-6.330713881999999,-1.699964921833333,1.013810653249995,False,3.647354163171599,0.0,False,37.83958725006121,,
mp-1199652,MgBO3,40,Mg1 B1 O3,3.2204416147368673,10.434268,12.484543675067384,90.0,95.09562197890966,90.0,mono,P2_1/c,8.0040719,-7.16188117775,-2.531132217583333,0.18264335749999502,False,2.642311523145424,0.18879999999999902,False,417.8595139301743,,
mp-1185692,MgBeO3,5,Mg1 Be1 O3,3.490528,3.490528,3.490528,90.0,90.0,90.0,cubic,Pm-3m,2.0015331,-5.849290492,-1.806537312999999,0.649928676,False,3.175034331029491,0.0,False,42.52784519741567,,
mp-1185847,MgBiO3,5,Mg1 Bi1 O3,3.935588,3.935588,3.935588,90.0,90.0,90.0,cubic,Pm-3m,0.9979262,-5.71506759,-1.642190122000001,0.45651727566667005,False,7.662396584623495,0.0,False,60.95774362961122,,
mp-1376863,MgBiO3,20,Mg1 Bi1 O3,5.651679,5.70683,8.292801,90.0,90.0,90.0,ortho,Pnma,0.000368,-6.0475375975,-1.9746601295000001,0.12404726816667101,False,6.98521590062872,0.0,False,267.46913094087574,,
mp-2647164,MgCO3,60,Mg1 C1 O3,9.525298168162557,7.142288,8.243413120815674,90.0,102.90277733151697,90.0,mono,C2/m,0.0,-7.268449153166667,-2.127845448666667,0.31464865683333304,False,3.073357702044563,4.8023,False,546.6588860031457,,
mp-5348,MgCO3,10,Mg1 C1 O3,5.649855439768963,5.649855438365628,5.649855685096353,48.443210150664584,48.44320467685167,48.44319921852943,trig,R-3c,0.0,-7.583097810000001,-2.442494105500001,0.0,True,3.023645157788725,4.9603,False,92.60777472300774,,
mp-546079,MgCO3,10,Mg1 C1 O3,5.162860567148603,5.162860567148603,3.646814,90.0,90.0,110.97251162985687,ortho,C222_1,0.0,-7.205036176999999,-2.064432472499999,0.378061633000001,False,3.084978942928656,5.4366,False,90.76659996550487,"{'voigt': 96.327, 'reuss': 75.136, 'vrh': 85.731}","{'voigt': -151.957, 'reuss': 46.569, 'vrh': -52.694}"
mp-20424,MgCo3C,5,Mg1 Co3 C1,3.76239029,3.76239029,3.76239029,90.0,90.0,90.0,cubic,Pm-3m,2.243793,-6.500367282000002,-0.048490148500003,0.0,True,6.644650796392003,0.0,False,53.258819353494175,,
mp-1076820,MgCoO3,5,Mg1 Co1 O3,3.657883479999999,3.65787367,3.657875439999999,90.0,90.0,90.0,cubic,Pm-3m,2.6400955,-6.06259998,-1.34104603,0.5514157765000001,False,4.45262281611853,0.0,False,48.94265017651288,,
mp-755711,MgCoO3,20,Mg1 Co1 O3,6.382678415778756,6.382678415778756,4.96192623844823,86.81401285106325,86.81401285106325,83.42588969911102,mono,C2/c,3.9998958,-6.510295363500001,-1.7887414135,0.10372039299999901,False,4.352905594863571,0.16439999999999902,False,200.25535230021822,,
mp-756102,MgCoO3,20,Mg1 Co1 O3,4.927362,5.145678,7.191459,90.0,90.0,90.0,ortho,Pnma,4.0002481,-6.521940485,-1.800386535,0.09207527150000001,False,4.780675833063921,0.0,False,182.3366975439391,,
mp-761524,MgCoO3,10,Mg1 Co1 O3,5.356343431157117,5.356343431157117,5.356344352400152,54.750897471746754,54.750897471746754,54.75089365727723,trig,R-3,1.9982132,-6.5479177910000015,-1.826363841,0.06609796550000001,False,4.569557284977725,0.0,False,95.380426271781,,
mp-1346485,MgCrO3,20,Mg1 Cr1 O3,5.023085,5.228711,7.370666,90.0,90.0,90.0,ortho,Pnma,8.0000061,-7.61111737,-2.385637270000001,0.12049696800000001,False,4.264870753147212,0.229299999999999,False,193.58508667463838,,
mp-2225290,MgCrO3,5,Mg1 Cr1 O3,5.262659205060214,5.244500241935832,3.054912,90.0,90.0,116.0138206815511,mono,Pm,2.0002471,-7.559965722000001,-2.334485622000001,0.171648615999999,False,2.7239594734223602,0.9534,True,75.77346345087477,,
mp-1076317,MgCuO3,5,Mg1 Cu1 O3,3.731181,3.731181,3.731181,90.0,90.0,90.0,cubic,Pm-3m,0.045282199999999,-5.270100699999999,-1.155388759999999,0.49833060700000004,False,4.342774019810358,0.0,False,51.9444260137228,,
mp-1076368,MgFeO3,5,Mg1 Fe1 O3,3.765865,3.765865,3.765865,90.0,90.0,90.0,cubic,Pm-3m,3.9961674,-6.604848745999999,-1.615973897999998,0.5071998925000011,False,3.9844406862350312,0.0,False,53.40651528572358,,
mp-1279364,MgFeO3,20,Mg1 Fe1 O3,4.9928741676483295,5.40624239386369,7.771013136186877,84.32479156575621,93.06461284884215,90.65209114381669,tri,P-1,1e-07,-6.998651236500001,-2.0097763885,0.11339740200000001,False,4.083771894673067,0.2,False,208.42994947102036,,
mp-1303831,MgFeO3,20,Mg1 Fe1 O3,5.08213865420553,5.474779822415327,7.49991851409927,84.19248742411975,89.87475856486058,89.80349116213944,trig,R3,16.0002887,-6.998474354000001,-2.009599506,0.11357428450000001,False,4.100057629308676,0.229499999999999,False,207.60205016957303,,
mp-1372708,MgFeO3,20,Mg1 Fe1 O3,4.95391641,5.18178631,7.25737841,90.0,90.0,90.0,ortho,Pnma,15.7553774,-6.961707060500001,-1.9728322125000002,0.150341577999999,False,4.568921088104576,0.0,False,186.29789248800395,,
mp-752416,MgFeO3,20,Mg1 Fe1 O3,6.497502189002863,6.497502189002863,5.361173624170178,89.97931548020698,89.97931548020698,83.13996801661749,mono,C2/c,15.9994547,-6.936062445499999,-1.947187597499998,0.175986193000001,False,3.787819249982385,0.11290000000000001,False,224.71514966344782,,
mp-754508,MgFeO3,10,Mg1 Fe1 O3,5.506430095537217,5.506430095537217,5.506429910624124,55.144717116509376,55.144717116509376,55.14472314595074,trig,R-3,7.9899635,-6.997321393999999,-2.008446545999999,0.114727244500001,False,4.063720553067422,0.0,False,104.72919564011151,,
mp-1016827,MgGeO3,5,Mg1 Ge1 O3,3.718173,3.718173,3.718173,90.0,90.0,90.0,cubic,Pm-3m,0.000286199999999,-6.26025941,-2.040783233,0.5249547200000031,False,4.682288444475782,1.5499,False,51.40303697478925,"{'voigt': 185.85, 'reuss': 185.85, 'vrh': 185.85}","{'voigt': 101.137, 'reuss': 100.599, 'vrh': 100.868}"
mp-3047,MgGeO3,10,Mg1 Ge1 O3,4.881366293869084,4.881366293869084,6.93351539,90.0,90.0,146.49240550700532,ortho,Cmcm,0.0,-6.6438068285,-2.4243306515,0.14140730150000302,False,5.2779370042791545,2.4744,False,91.20375853022863,"{'voigt': 161.95, 'reuss': 160.675, 'vrh': 161.312}","{'voigt': 75.886, 'reuss': 14.598, 'vrh': 45.242}"
mp-3759,MgGeO3,10,Mg1 Ge1 O3,5.470433038838516,5.470433038838516,5.470433593643926,54.54174207659024,54.54174207659024,54.5417426411526,trig,R-3,0.0003523,-6.753412116999999,-2.533935939999999,0.031802013000004,False,4.764605969186327,3.633899999999999,False,101.02990576537422,"{'voigt': -431890715251260.7, 'reuss': 228.07, 'vrh': -215945357625516.3}","{'voigt': 1661529301845079.5, 'reuss': 3237.198, 'vrh': 830764650924158.4}"
mp-4575,MgGeO3,80,Mg1 Ge1 O3,5.33724565,8.92147031,18.81824604,90.0,90.0,90.0,ortho,Pbca,1.48e-05,-6.77236448675,-2.55288830975,0.012849643250003002,False,4.297680803345858,3.048999999999999,True,896.0510826234963,,
mp-4819,MgGeO3,20,Mg1 Ge1 O3,6.553720038829468,6.553720038829468,5.168550133802203,82.13121204896656,82.13121204896656,85.8309914098269,mono,C2/c,0.0,-6.77348626,-2.554010083,0.011727870000003,False,4.426262699821197,2.5261,False,217.50525204727657,"{'voigt': 115.181, 'reuss': 107.676, 'vrh': 111.428}","{'voigt': 68.008, 'reuss': 62.397, 'vrh': 65.203}"
mp-1185882,MgHgO3,5,Mg1 Hg1 O3,3.973459,3.973459,3.973459,90.0,90.0,90.0,cubic,Pm-3m,2.0172459,-4.313778647999999,-0.9569736345000011,0.512373026499998,False,7.223299178475568,0.0,False,62.734466400036546,,
mp-29483,MgInBr3,20,Mg1 In1 Br3,3.95662123,9.5483782,15.45483301,90.0,90.0,90.0,ortho,Pnma,0.0,-3.334993822499998,-1.474897149833331,0.011251461499999001,False,4.30963786597113,2.2355,False,583.8730184385521,,
mp-1185889,MgInO3,5,Mg1 In1 O3,3.883706,3.883706,3.883706,90.0,90.0,90.0,cubic,Pm-3m,1.0716981,-5.259050988,-1.412345633333333,0.800011728499999,False,5.304360757056846,0.0,False,58.578606738934866,,
mp-1232299,MgInS3,10,Mg1 In1 S3,6.8092664237511675,6.8092664237511675,6.516233002289129,75.66313301095352,75.66313301095352,120.21195451628193,mono,C2/m,0.038688299999999,-4.295739852,-0.9347953598333321,0.18116615775,False,3.449025661509575,0.0,False,226.58847478864658,,
mp-1232193,MgInSe3,20,Mg1 In1 Se3,7.0293765019296695,10.553355,8.510194729265011,90.0,109.55882991053713,90.0,mono,C2/m,0.0066698,-3.738031033,-0.762555394739582,0.27927762775000103,False,4.198219718202949,0.0,False,594.8880359468758,,
mp-1232401,MgInSe3,30,Mg1 In1 Se3,6.589908,6.589908228109099,30.146029,90.0,90.0,119.99999885494792,trig,R-3,0.820854299999999,-3.739910137666666,-0.7644344994062491,0.277398523083334,False,3.304244611367453,0.0,False,1133.7556581207348,,
mp-1237970,MgInSe3,10,Mg1 In1 Se3,6.566839407820478,6.566839407820478,8.02703332022784,81.46357951744505,81.46357951744505,119.45944918828445,mono,C2/m,0.1334849,-3.750943127,-0.775467488739582,0.266365533750001,False,4.335395817620319,0.0,False,288.03260275391074,,
mp-1016826,MgIrO3,5,Mg1 Ir1 O3,3.921368,3.921368,3.921368,90.0,90.0,90.0,cubic,Pm-3m,1.0065614,-6.250591468,-1.188034025999999,0.7838253469999991,False,7.284422688581256,0.0,False,60.29937371610635,"{'voigt': 172.48, 'reuss': 172.48, 'vrh': 172.48}","{'voigt': 17.06, 'reuss': 15.092, 'vrh': 16.076}"