mp_id,formula,sites,composition,a_edge (angstrom),b_edge (angstrom),c_edge (angstrom),alpha_ang (deg),beta_ang (deg),gamma_ang (deg),crystal_system,space_group,total_magnetisation (bohr),energy_per_atom (eV/atom),formation_energy (eV/atom),energy_above_hull (eV/atom),stable,density (g/cc),band_gap (eV),direct_bandgap,volume (cubic-angstrom),bulk_modulus (GPa),shear_modulus (GPa)
mp-1187220,TaFeO3,5,Ta1 Fe1 O3,3.979416999999999,3.979416999999999,3.979416999999999,90.0,90.0,90.0,cubic,Pm-3m,3.0137322,-9.176723004,-2.140556650466666,0.5382121325000551,False,7.5044199147459025,0.0,False,63.017091198476514,,
mp-8848,TaFeTe3,10,Ta1 Fe1 Te3,3.537942,8.06544,10.389949360372503,69.02490629958766,90.0,90.0,mono,P2_1/m,3.8148876,-6.463757777,-0.510384490466665,0.020059772925926003,False,7.433085837553914,0.0,False,276.8320466391339,,
mp-33753,TaHO3,20,Ta1 H1 O3,7.501014526587854,7.501014526587854,7.501014526587854,117.74480929524053,117.74480929524053,93.95260773927146,tet,I4_1/amd,0.0001539,-8.6707009655,-2.649505566216666,0.07708952375000201,False,4.9620874428036785,2.9434,False,307.8120957223327,,
mp-1187260,TaInO3,5,Ta1 In1 O3,4.067159,4.067159,4.067159,90.0,90.0,90.0,cubic,Pm-3m,2.899999999999999e-06,-8.400880748,-2.506883887799999,0.178475823777782,False,8.484693137654336,0.0,False,67.27805888471052,,
mp-1247469,TaMoN3,20,Ta1 Mo1 N3,8.604565009829491,5.462802655672636,8.121363519622859,119.27877663712646,94.08256052458073,119.64765640797917,tri,P-1,0.0005603,-10.2192425,-0.6737603224666671,0.224364218800008,False,8.037451945338049,0.0,False,263.54579189622444,,
mp-1101316,TaOF3,5,Ta1 O1 F3,5.2045611164466115,5.2045611164466115,5.2045611164466115,136.31064824020567,133.54731251253423,65.66639405292044,ortho,Immm,0.00023669999999900002,-7.958431195999999,-3.4485661059666652,0.061258638571430005,False,6.06477242959079,2.7903000000000002,False,69.52963685711063,,
mp-677065,TaOF3,25,Ta1 O1 F3,4.064072,4.896629570516438,18.228482729642803,90.82835343890241,89.89660435714802,114.09773107726483,tri,P1,0.000326599999999,-7.7402297732,-3.230364683166667,0.27946006137143,False,6.36788910325216,2.153299999999999,False,331.09984942663823,,
mp-22087,TaRu3C,5,Ta1 Ru3 C1,4.055608,4.055608,4.055608,90.0,90.0,90.0,cubic,Pm-3m,3.399999999999998e-06,-9.858502362,-0.074742230966666,0.15355960599999902,False,12.35123666097595,0.0,False,66.70646294978734,,
mp-8074,TaSnO3,5,Ta1 Sn1 O3,4.072593,4.072593,4.072593,90.0,90.0,90.0,cubic,Pm-3m,0.0013352,-8.50414018,-2.360063697466667,0.324955825000008,False,8.546452732962305,0.0,False,67.54808347028872,"{'voigt': 189.595, 'reuss': 189.595, 'vrh': 189.595}","{'voigt': 44.567, 'reuss': 0.28, 'vrh': 22.423}"
mp-676262,TaTlO3,40,Ta1 Tl1 O3,7.540306969802514,7.540306969802514,13.062029096237094,72.9341542632463,72.9341542632463,60.019215965255654,mono,C2/c,0.0,-8.500544168750002,-2.684087633883337,0.0,True,9.511450247152817,0.9801000000000001,False,605.216109424282,,
mp-756933,TaTlO3,20,Ta1 Tl1 O3,7.545341357138583,7.545341357138583,7.545341357138583,60.00000000000001,60.00000000000001,60.00000000000001,cubic,Fd-3m,0.0,-8.496269444000001,-2.679812909133335,0.004274724750001,False,9.475574378534992,0.655999999999999,False,303.75377172937436,,
mp-861873,TaTlO3,5,Ta1 Tl1 O3,4.082848,4.082848,4.082848,90.0,90.0,90.0,cubic,Pm-3m,4.6700000000000003e-05,-8.393179314,-2.576722779133334,0.10736485475000201,False,10.572497647822221,0.6811,True,68.05963814461339,"{'voigt': 187.786, 'reuss': 187.786, 'vrh': 187.786}","{'voigt': 106.695, 'reuss': 102.727, 'vrh': 104.711}"
mp-10795,TaTlS3,20,Ta1 Tl1 S3,3.52052828,9.36354836,14.4418627,90.0,90.0,90.0,ortho,Pnma,0.0,-6.416457265000003,-1.085761592633336,0.000669481153839,False,6.718270500255314,0.595799999999999,False,476.0707586574709,,
mp-12027,TaTlSe3,20,Ta1 Tl1 Se3,3.650713,9.842243,15.345725999999999,90.0,90.0,90.0,ortho,Pnma,0.0029525,-29.68222778799997,-0.7410641909041371,0.024487024333371,False,7.495276937329654,0.2993,False,551.390418635224,,
mp-1246615,TaWN3,20,Ta1 W1 N3,5.885075274296243,9.572887854669613,7.886044117673702,123.85719218750054,76.09126996496396,119.1331191391193,tri,P-1,0.0010677,-26.0179499855873,-0.5487741643039691,0.385175269857128,False,8.392219110180413,0.232999999999999,False,321.97469323705934,,
mp-10041,Tb3AlC,5,Tb3 Al1 C1,5.374107,5.374107,5.374107,90.0,90.0,90.0,cubic,Pm-3m,0.0001463,-3.945755512,1.4318109265,1.786531183999999,False,5.518039521550573,0.0,False,155.20972424877803,"{'voigt': 36.148, 'reuss': 36.148, 'vrh': 36.148}","{'voigt': 20.762, 'reuss': 7.792, 'vrh': 14.277}"
mp-570822,Tb3AlC,5,Tb3 Al1 C1,4.90293061,4.90293061,4.90293061,90.0,90.0,90.0,cubic,Pm-3m,1.1e-06,-5.732286696,-0.354720257499999,0.0,True,7.266687659655833,0.0,False,117.86021811405159,"{'voigt': 76.355, 'reuss': 76.355, 'vrh': 76.355}","{'voigt': 58.994, 'reuss': 58.886, 'vrh': 58.94}"
mp-1018638,Tb3AlN,5,Tb3 Al1 N1,4.78290322,4.78290322,4.78290322,90.0,90.0,90.0,cubic,Pm-3m,2.0200000000000003e-05,-22.981578501999998,-1.07354821175,0.0,True,7.857898426759514,0.0,False,109.41447468737682,,
mp-1206878,Tb3GaC,5,Tb3 Ga1 C1,4.87141646,4.87141646,4.87141646,90.0,90.0,90.0,cubic,Pm-3m,7.5999999999999975e-06,-5.6485340980000025,-0.41446362100000106,0.0,True,8.022580412776923,0.0,False,115.60211443626791,,
mp-21392,Tb3InC,5,Tb3 In1 C1,5.609421,5.609421,5.609421,90.0,90.0,90.0,cubic,Pm-3m,1.7000000000000003e-05,-3.585575837999999,1.5947101831666681,1.918801767166665,False,5.678683160556419,0.0,False,176.50381960421194,,
mp-19769,Tb3InN,5,Tb3 In1 N1,4.82578461,4.82578461,4.82578461,90.0,90.0,90.0,cubic,Pm-3m,2.0600000000000003e-05,-26.267687724,-1.190359023749999,0.0,True,8.948117938788002,0.0,False,112.38382317002284,,
mp-20963,Tb3PbC,5,Tb3 Pb1 C1,5.706678,5.706678,5.706678,90.0,90.0,90.0,cubic,Pm-3m,0.0004938,-3.7572335,1.6137471865,2.030639236444443,False,6.218705134153525,0.0,False,185.8446675440064,,
mp-20750,Tb3SnC,5,Tb3 Sn1 C1,5.630732,5.630732,5.630732,90.0,90.0,90.0,cubic,Pm-3m,0.0151176,-3.979349696,1.4510159475,1.9633422661111122,False,5.650650999028847,0.0,False,178.5231624428596,,
mp-19836,Tb3TlC,5,Tb3 Tl1 C1,5.640493,5.640493,5.640493,90.0,90.0,90.0,cubic,Pm-3m,0.0006885,-3.486166062,1.616579633833332,1.906848261444444,False,6.414129048854041,0.0,False,179.4531945109089,,
mp-1217573,TbAl3Ag,5,Tb1 Al3 Ag1,4.191552,4.185423,6.383764501021164,70.86362778782575,70.8345070880213,90.0,tet,I-4m2,0.000268499999999,-4.097075332,-0.353569573666665,0.00034698086667100004,False,5.820268714749841,0.0,False,99.21067867457501,,
mp-4434,TbAlO3,20,Tb1 Al1 O3,5.19165377,5.30555533,7.39404835,90.0,90.0,90.0,ortho,Pnma,0.0,-8.3851686665,-3.739704172833333,0.009000524749999001,False,7.628337563286275,5.598200000000001,False,203.66615099267239,,
mp-1217607,TbBO3,10,Tb1 B1 O3,3.8899507550158243,4.323501719365959,8.52708142,90.0,90.0,56.29794858008696,ortho,Ama2,0.0,-8.699016827,-3.466789145166666,0.0,True,6.060902319096625,4.4297,False,119.30788763395246,,
mp-3022,TbBPd3,5,Tb1 B1 Pd3,4.327708,4.327708,4.327708,90.0,90.0,90.0,cubic,Pm-3m,0.0,-22.14554416490909,-0.654714329409088,0.11274995509091201,False,10.017996233431402,0.0,False,81.0538877914589,"{'voigt': 142.81, 'reuss': 142.81, 'vrh': 142.81}","{'voigt': 18.497, 'reuss': 2.656, 'vrh': 10.576}"
mp-3869,TbBRh3,5,Tb1 B1 Rh3,4.17922594,4.17922594,4.17922594,90.0,90.0,90.0,cubic,Pm-3m,0.000696,-7.467043082000001,-0.7850072811666661,0.0,True,10.884304689644035,0.0,False,72.99406545528203,,
mp-863748,TbBS3,20,Tb1 B1 S3,6.10527,7.247642,8.755194,90.0,90.0,90.0,ortho,Pna2_1,0.0008441999999990001,-6.263075194000001,-1.516608374666665,0.037185812029998,False,4.559437273518319,2.3293,False,387.4069269674787,,
mp-1187310,TbBeO3,5,Tb1 Be1 O3,3.582893,3.582893,3.582893,90.0,90.0,90.0,cubic,Pm-3m,0.9899391999999991,-7.544687179999999,-2.900455279333333,0.33177757837500005,False,7.796004750847253,0.0,False,45.99403544769507,,
mp-1217576,TbBiTe3,5,Tb1 Bi1 Te3,10.8472598886717,10.8472598886717,10.847260604708683,23.485968932077686,23.485968932077686,23.485972924212856,trig,R3m,0.0030943,-34.15357977900002,-0.957503614000017,0.027055498999999,False,7.002971684245286,1.038,True,178.0067493633736,,
mp-755605,TbCO3,20,Tb1 C1 O3,4.891937,5.319011,8.068755157989676,89.87514400068132,90.0,90.0,mono,P2_1/m,1.27e-05,-8.5037398375,-2.7616574113333323,0.025706206499995003,False,6.926367754212036,4.055400000000001,False,209.9506627673306,,
mp-19802,TbCoO3,20,Tb1 Co1 O3,5.14811318,5.40980175,7.38391903,90.0,90.0,90.0,ortho,Pnma,0.0,-7.945187599499943,-2.622154927833276,0.0,True,8.586979182753064,1.4208999999999992,False,205.64415112513473,,
mp-1069044,TbCoSi3,5,Tb1 Co1 Si3,5.53894642826704,5.53894642826704,5.53894642826704,137.224858813407,137.224858813407,62.09226193265915,tet,I4mm,0.0,-6.232843385999999,-0.6233964993333321,0.0,True,6.477585592581337,0.0,False,77.44765818373362,,
mp-756124,TbCrO3,20,Tb1 Cr1 O3,5.25593727,5.54415288,7.56498891,90.0,90.0,90.0,ortho,Pnma,12.000001,-9.0416070835,-3.214648261833333,0.0,True,7.801541691124652,2.4854000000000003,False,220.4416567686988,,
mp-1208345,TbCrSe3,20,Tb1 Cr1 Se3,3.902542,8.221596,13.351086,90.0,90.0,90.0,ortho,Pnma,12.001834,-6.405198821499999,-1.449469716239582,0.032535153250002,False,6.943433380239512,0.113999999999999,True,428.37124579971214,,
mp-1187321,TbCuO3,5,Tb1 Cu1 O3,3.782912,3.782912,3.782912,90.0,90.0,90.0,cubic,Pm-3m,0.0011721,-6.967511657999999,-2.251320996333332,0.16570828950000102,False,8.296382371600236,0.0,False,54.13507164738998,,
mp-1187342,TbErO3,5,Tb1 Er1 O3,4.24976,4.24976,4.24976,90.0,90.0,90.0,cubic,Pm-3m,4.0900000000000005e-05,-8.003597216,-3.193704126333332,0.825933458875001,False,8.095420538997141,1.7284000000000002,True,76.75262073438618,,
mp-756048,TbErO3,20,Tb1 Er1 O3,5.681784,5.937561,8.402514,90.0,90.0,90.0,ortho,Pnma,0.0002003,-8.7410922665,-3.9311991768333323,0.088438408374999,False,8.76779870405418,4.5065,True,283.4667004969909,,
mp-19853,TbFeO3,20,Tb1 Fe1 O3,5.30188447,5.62729075,7.63675994,90.0,90.0,90.0,ortho,Pnma,20.0102995,-8.434927227,-2.844573657333333,6.255587500092474e-05,False,7.660263689728519,1.6263,False,227.8446071426553,,
mp-1199267,TbFeSb3,40,Tb1 Fe1 Sb3,6.102814,12.029095,12.452416,90.0,90.0,90.0,ortho,Pbcm,0.4305845,-5.67440901625,-0.575431305583332,0.012157141749999,False,8.429233184732164,0.0,False,914.1484124697245,,
mp-18462,TbGa3Os,15,Tb1 Ga3 Os1,6.3953521,6.3953521,6.3953521,90.0,90.0,90.0,cubic,Pm-3m,0.0304491,-24.274409006,-0.5664108360000001,0.0,True,10.63318920541609,0.0,False,261.5732807247002,,
mp-1104461,TbGa3Ru,15,Tb1 Ga3 Ru1,6.39180224,6.39180224,6.39180224,90.0,90.0,90.0,cubic,Pm-3m,1.7e-06,-5.186435588666662,-0.587124742499995,0.0,True,8.950048066226097,0.0,False,261.13794900304885,,
mp-1101339,TbGaO3,10,Tb1 Ga1 O3,5.378312442560492,5.378312442560492,5.378312917659682,61.53484377418555,61.53484377418555,61.53483645290226,trig,R-3c,9.93e-05,-7.568390402,-3.066421869833333,0.106284670083333,False,8.073723894643507,3.7138,True,113.79690708023502,,
mp-756290,TbGaO3,20,Tb1 Ga1 O3,5.320997,5.60395,7.659555,90.0,90.0,90.0,ortho,Pnma,0.0004723,-7.6274943385,-3.125525806333333,0.047180733583333,False,8.045324073302229,3.9217999999999993,True,228.39721544072253,,
mp-756224,TbGdO3,20,Tb1 Gd1 O3,5.784414,6.033436,8.490438,90.0,90.0,90.0,ortho,Pnma,28.3826443,-10.555826073,-3.844252297333332,0.094544135375,False,8.163254091638267,3.1586,False,296.31536640116883,,
mp-981132,TbGeO3,5,Tb1 Ge1 O3,3.915810999999999,3.915810999999999,3.915810999999999,90.0,90.0,90.0,cubic,Pm-3m,0.0008948999999990001,-7.222090068,-2.401135169333333,0.6164286589062491,False,7.731512778487517,0.0,False,60.04338473889156,,
mp-755740,TbHoO3,20,Tb1 Ho1 O3,5.691931,5.952072,8.435282,90.0,90.0,90.0,ortho,Pnma,7.27e-05,-8.725198068000001,-3.9093128473333323,0.095557411749999,False,8.642790494132278,4.7786,True,285.7770895270979,,
mp-769263,TbInO3,20,Tb1 In1 O3,5.567067,5.898466,8.204513,90.0,90.0,90.0,ortho,Pnma,0.0003698,-7.380217258,-2.9320331816666663,0.05609104887500001,False,7.932277564294916,2.911199999999999,True,269.41286852002736,,
mp-754145,TbLuO3,20,Tb1 Lu1 O3,5.616018,5.884038,8.266365,90.0,90.0,90.0,ortho,Pnma,0.000192,-8.787407116999999,-3.986720298666666,0.0662620235,False,9.286016758084521,4.9973,True,273.160901583886,,
mp-1187347,TbMgO3,5,Tb1 Mg1 O3,3.856457,3.856457,3.856457,90.0,90.0,90.0,cubic,Pm-3m,1.0010994,-6.979735644,-2.757292313333333,0.449121891374999,False,6.694606786001649,0.0,False,57.35423346911667,,
mp-1232160,TbMgS3,10,Tb1 Mg1 S3,6.931231037032599,6.931231037032599,6.7737274269802885,73.36750549150146,73.36750549150146,110.81699480100463,mono,C2/m,2.0017491,-5.283688209,-1.547005740833332,0.35371523449999104,False,3.532659243005882,0.2,False,262.68976312505646,,
mp-1232232,TbMgS3,30,Tb1 Mg1 S3,6.714025,6.714025066711101,18.055527,90.0,90.0,120.00000459827727,trig,R-3,4.6009655,-5.360508802,-1.623826333833332,0.27689464149999105,False,3.9496576968912582,0.0,False,704.8662119331294,,
mp-1232315,TbMgSe3,20,Tb1 Mg1 Se3,8.473840365365872,11.951104,7.575516606125947,90.0,133.88083381998825,90.0,mono,C2/m,0.001516199999999,-4.777536038,-1.426322423739583,0.30446056066666605,False,5.046233731803071,0.0,False,552.9745037860037,,
mp-1232347,TbMgSe3,30,Tb1 Mg1 Se3,6.929893,6.929892417872373,19.29184,90.0,90.0,119.99999800529275,trig,R-3,2.6491829,-4.847674414333334,-1.496460800072916,0.23432218433333202,False,5.216826768392377,0.0,False,802.3379108748617,,
mp-1237963,TbMgSe3,10,Tb1 Mg1 Se3,7.351322721639216,7.351322721639216,6.884209531275831,76.43907756147462,76.43907756147462,118.68289775358333,mono,C2/m,4.8700000000000005e-05,-4.738442848,-1.387229233739583,0.34355375066666605,False,4.8139244167180415,0.0,False,289.8299134217002,,
mp-1188379,TbMnO3,20,Tb1 Mn1 O3,3.407102,6.037715,13.165208,90.0,90.0,90.0,ortho,Pnma,16.0048208,-8.445132787999999,-2.716380401919539,0.314236524500001,False,6.422371567421256,0.9344999999999991,True,270.82295315671564,,
mp-22055,TbMnO3,20,Tb1 Mn1 O3,5.27122738,5.63501917,7.56732549,90.0,90.0,90.0,ortho,Pnma,16.0000011,-8.7593693125,-3.03061692641954,0.0,True,7.738046495726133,0.4016,True,224.7758055110435,,
mp-1087235,TbNiGe3,10,Tb1 Ni1 Ge3,10.945901996062359,10.945901996062359,4.08739182,90.0,90.0,158.5809894655315,ortho,Cmmm,0.0,-5.437124338000001,-0.579707564333333,0.0,True,8.08803023011615,0.0,False,178.83936850289064,,
mp-1187352,TbNiO3,5,Tb1 Ni1 O3,3.738698,3.738698,3.738698,90.0,90.0,90.0,cubic,Pm-3m,1.0005355,-7.347095931999999,-2.294719268333332,0.19866850399999902,False,8.440024863236033,0.0,False,52.25900745238172,,
mp-755865,TbNiO3,20,Tb1 Ni1 O3,5.17983298,5.49717878,7.4119376,90.0,90.0,90.0,ortho,Pnma,3.9999988,-7.545764435999999,-2.493387772333331,0.0,True,8.359446103714426,0.0,False,211.05097957634084,,
mp-770347,TbNiO3,10,Tb1 Ni1 O3,5.241194018193374,5.241194018193374,5.241194341995914,62.82157720185005,62.82157720185005,62.821580125250584,trig,R-3c,1.9999889999999991,-7.504032710999999,-2.451656047333332,0.041731725000000004,False,8.15337798701662,0.0,False,108.19253637657697,,
mp-1187359,TbOsO3,5,Tb1 Os1 O3,3.963612,3.963612,3.963612,90.0,90.0,90.0,cubic,Pm-3m,0.0172411,-8.02200867,-1.880185856333332,0.726862456333332,False,10.59093109716342,0.0,False,62.269216857666834,,
mp-542103,TbRh3C,5,Tb1 Rh3 C1,4.15536456,4.15536456,4.15536456,90.0,90.0,90.0,cubic,Pm-3m,9e-07,-7.684119586,-0.492229040833332,0.0,True,11.100651303658157,0.0,False,71.75090685055872,"{'voigt': 196.967, 'reuss': 196.967, 'vrh': 196.967}","{'voigt': 77.706, 'reuss': 77.643, 'vrh': 77.674}"
mp-5692,TbRhO3,20,Tb1 Rh1 O3,5.22941294,5.77580762,7.6000779,90.0,90.0,90.0,ortho,Pnma,0.0,-7.944981086500002,-2.575770184833334,0.0,True,8.964942818652476,0.8749000000000001,True,229.55338451111137,"{'voigt': 190.891, 'reuss': 180.476, 'vrh': 185.684}","{'voigt': 74.118, 'reuss': 62.296, 'vrh': 68.207}"
mp-31119,TbScO3,20,Tb1 Sc1 O3,5.4395561,5.73025335,7.93211736,90.0,90.0,90.0,ortho,Pnma,0.0,-9.119895555,-3.9570524063333323,0.018404450750001,False,6.766676755732844,4.4378,True,247.2443722811714,"{'voigt': 165.96, 'reuss': 160.963, 'vrh': 163.461}","{'voigt': 83.271, 'reuss': 81.192, 'vrh': 82.231}"
mp-1188262,TbScS3,20,Tb1 Sc1 S3,6.38954675,7.02160892,9.52792106,90.0,90.0,90.0,ortho,Pnma,0.0,-15.6300239635,-2.284040213187498,0.0,True,4.662683003823447,1.7696,False,427.4692108399353,,
mp-1068588,TbSi3Ir,5,Tb1 Si3 Ir1,5.71228497143106,5.71228497143106,5.71228497143106,137.0817526647759,137.0817526647759,62.31228874405023,tet,I4mm,1e-07,-6.745225189999999,-0.794774811333332,0.0,True,8.466783582563165,0.0,False,85.39214365496268,,
mp-1068827,TbSi3Rh,5,Tb1 Si3 Rh1,5.695664669050647,5.695664669050647,5.695664669050647,137.17688727670898,137.17688727670898,62.166002162931896,tet,I4mm,1e-07,-6.434067539999998,-0.778442423333331,0.0,True,6.812637439682409,0.0,False,84.3566930163626,,
mp-1187364,TbSiO3,5,Tb1 Si1 O3,3.7283020000000002,3.7283020000000002,3.7283020000000002,90.0,90.0,90.0,cubic,Pm-3m,0.0004615,-7.797072692,-2.815659758333333,0.7094974339999881,False,7.530094610668917,0.0,False,51.82427694555707,,
mp-756118,TbSmO3,20,Tb1 Sm1 O3,5.829079,6.07813,8.507765,90.0,90.0,90.0,ortho,Pnma,2.4e-06,-8.679432099,-3.839365544333334,0.082701226000001,False,7.872935591575265,4.7475000000000005,True,301.4292626823467,,
mp-1187377,TbTeO3,5,Tb1 Te1 O3,4.270654,4.270654,4.270654,90.0,90.0,90.0,cubic,Pm-3m,0.0316166,-6.1354619239999995,-1.610451417666666,1.102878487901039,False,7.1316928879254124,0.0,False,77.89026142912171,,
mp-768409,TbTiO3,20,Tb1 Ti1 O3,5.365621,5.7134,7.723401,90.0,90.0,90.0,ortho,Pnma,4.0044308,-9.103564156500001,-3.628116425500001,0.055962047999981,False,7.147747421016295,0.0,False,236.76811009381976,,
mp-756762,TbTmO3,20,Tb1 Tm1 O3,5.655502,5.926571,8.335532,90.0,90.0,90.0,ortho,Pnma,0.0001352,-8.7492180945,-3.9563684708333353,0.07975851762500001,False,8.935618836641323,4.568899999999999,True,279.38814552182055,,
mp-1217533,TbUTe3,20,Tb1 U1 Te3,4.37029432,11.885853008259884,12.148816008002104,89.96430316059445,90.0,90.0,ortho,Pnma,5.9768536,-38.900380686,-1.416351945000002,0.013243563500004002,False,8.207141733826875,0.0,False,631.0661875088738,,
mp-1187389,TbVO3,5,Tb1 V1 O3,3.842924,3.842924,3.842924,90.0,90.0,90.0,cubic,Pm-3m,2.0022212,-8.60458872,-2.891458178333335,0.400170577,False,7.544947010877843,0.0,False,56.75255092161906,,
mp-554811,TbVO3,20,Tb1 V1 O3,5.27539823,5.67600385,7.5629585299999995,90.0,90.0,90.0,ortho,Pnma,7.9999998,-9.004759297000001,-3.291628755333334,0.0,True,7.563310371821145,1.439599999999999,True,226.45903361633887,,
mp-555390,TcO3F,20,Tc1 O3 F1,5.262659,6.017554,9.517857276237178,86.75122918024549,90.0,90.0,mono,P2_1/c,0.0001573,-7.349794371,-1.9265941855,0.021290894375002003,False,3.641817676539584,2.444499999999999,False,300.9302824080249,,
mp-687205,TcPbO3,20,Tc1 Pb1 O3,7.3968517049479905,7.3968517049479905,7.3968517049479905,59.99999999999999,59.99999999999999,59.99999999999999,cubic,Fd-3m,8.0804837,-7.437499719,-1.654065912999999,0.063941841312498,False,8.197885205224003,0.0,False,286.1710768914209,,
mp-1187400,TcSnO3,5,Tc1 Sn1 O3,3.984185,3.984185,3.984185,90.0,90.0,90.0,cubic,Pm-3m,0.0003817,-7.341659590000001,-1.498840827,0.33065778574999705,False,6.950211234899953,0.0,False,63.24387741514354,,
mp-29429,TeCF3,40,Te1 C1 F3,11.794863,7.034608,10.448327530578759,79.14750964203536,90.0,90.0,mono,P2_1/c,0.0021126,-5.13962724775,-1.518345590083333,0.333563522291665,False,3.067564130811213,2.5075000000000003,False,851.416380407064,,
mp-1195796,TeHO3,40,Te1 H1 O3,4.74930327,8.0353211,12.07919741,90.0,90.0,90.0,ortho,Pna2_1,0.0,-5.660514848,-1.384043778583333,0.0,True,5.089482963780082,2.2733,False,460.96846686936004,,
mp-625630,TeHO3,40,Te1 H1 O3,4.83496,8.327892,11.984585,90.0,90.0,90.0,ortho,Pna2_1,0.0017806999999990002,-5.63435221,-1.357881140583333,0.026162637999999003,False,4.8617644432422065,2.1229,False,482.5596110960229,,