mp_id,formula,sites,composition,a_edge (angstrom),b_edge (angstrom),c_edge (angstrom),alpha_ang (deg),beta_ang (deg),gamma_ang (deg),crystal_system,space_group,total_magnetisation (bohr),energy_per_atom (eV/atom),formation_energy (eV/atom),energy_above_hull (eV/atom),stable,density (g/cc),band_gap (eV),direct_bandgap,volume (cubic-angstrom),bulk_modulus (GPa),shear_modulus (GPa)
mp-1068389,SnCCl3,5,Sn1 C1 Cl3,5.269071999999999,5.269071999999999,5.269071999999999,90.0,90.0,90.0,cubic,Pm-3m,1.852279799999999,-3.239736057999999,0.517033407499999,1.651449031499999,False,2.691169593371588,0.0,False,146.2858768609199,,
mp-1068985,SnCCl3,5,Sn1 C1 Cl3,4.997462695737608,4.997462695737608,4.997462638587407,80.06370851491282,80.06370851491282,80.06370910587681,trig,R3m,0.9520303,-3.600492902,0.15627656349999902,1.290692187499999,False,3.286823287048542,0.0,False,119.77525694766497,,
mp-729742,SnCCl3,5,Sn1 C1 Cl3,7.183292848041001,7.183292848041001,3.890799508574684,87.09700297648115,87.09700297648115,123.68124972777532,mono,Cm,1.0003199,-3.72635763,0.030411835499999002,1.164827459499999,False,2.370165524887018,0.787,False,166.0981478357188,,
mp-1101394,SnGeO3,10,Sn1 Ge1 O3,7.076874082384467,7.076874082384467,7.076874023014681,44.31413976745228,44.31413976745228,44.314148682695105,trig,R-3,0.0001993,-6.498422442000001,-1.8031258970000001,0.14274846199999602,False,5.056354248358174,2.5993999999999993,False,157.20695864987835,,
mp-1187065,SnGeO3,5,Sn1 Ge1 O3,3.864235,3.864235,3.864235,90.0,90.0,90.0,cubic,Pm-3m,0.001404799999999,-6.328173208,-1.632876662999999,0.31299769599999705,False,6.887929191489851,0.0,False,57.701963183861174,,
mp-769144,SnGeO3,60,Sn1 Ge1 O3,7.15438283,11.747972558703031,13.32631947836365,60.08063354741478,90.0,90.0,mono,P2/c,0.0,-6.60144247,-1.9061459250000001,0.039728433999997,False,4.912835917624815,2.281099999999999,True,970.7966069728828,,
mp-5045,SnGeS3,20,Sn1 Ge1 S3,10.73326962,6.844584746913787,7.536298493562893,73.9204202825438,90.0,90.0,mono,P2_1/c,0.0,-4.8938272365,-0.6842915539999991,0.0,True,3.590124056442368,1.6591,False,531.9924307893194,,
mp-1016837,SnHgO3,5,Sn1 Hg1 O3,4.081489,4.081489,4.081489,90.0,90.0,90.0,cubic,Pm-3m,0.0034075,-5.012297874,-1.179672492500001,0.33883970349999704,False,8.970404073787693,0.0,False,67.99169860966235,"{'voigt': 138.108, 'reuss': 138.108, 'vrh': 138.108}","{'voigt': 53.451, 'reuss': 51.312, 'vrh': 52.382}"
mp-13554,SnHgO3,10,Sn1 Hg1 O3,5.767216749078362,5.767216749078362,5.76721663839499,58.9309244107565,58.9309244107565,58.930921582987544,trig,R-3c,1.25e-05,-5.286142636,-1.453517254500001,0.064994941499996,False,9.218080204353802,0.0,False,132.32972520759614,,
mp-1079200,SnNF3,10,Sn1 N1 F3,5.790100398038104,5.790100398038104,5.790100743354299,64.87288449143585,64.87288449143585,64.87289073581347,trig,R-3,5.9990594,-4.480307579,-0.8638502785000001,1.339848758000004,False,4.148280260991907,0.0,False,151.88175218169147,,
mp-1080727,SnNF3,10,Sn1 N1 F3,6.2349297412921185,6.2349297412921185,6.805481066703367,62.2657190150918,62.2657190150918,60.19598051696783,mono,C2,6.0,-4.582062940999999,-0.9656056404999991,1.238093396000004,False,3.255620425010341,0.0,False,193.5262691375251,,
mp-1179476,SnNF3,10,Sn1 N1 F3,6.79242556038283,3.6471112816804756,6.402005476243909,99.00096044868435,99.81975848560698,70.4887899160012,tri,P-1,0.0017341,-5.061954649,-1.4454973484999991,0.7582016880000041,False,4.302127044587085,1.762299999999999,False,146.45036468016409,,
mp-1237814,SnNF3,10,Sn1 N1 F3,7.067764271608455,7.067764271608455,7.067764115016078,52.21278959175246,52.21278959175246,52.212794602045705,trig,R-3,6.0000387,-4.599682573,-0.983225272499999,1.220473764000003,False,3.088903689291743,0.6753,False,203.97142091686237,,
mp-726037,SnPO3,10,Sn1 P1 O3,7.354480957904915,7.354480957904915,4.858219902056513,75.53409497465346,75.53409497465346,120.57708054572804,mono,Cc,2.0001174,-6.779568617000001,-1.925782937928572,0.31074751411426504,False,3.359908743902649,0.5198,False,195.39734301346112,,
mp-1079752,SnPS3,10,Sn1 P1 S3,7.856394744707588,7.856394744707588,7.856394760375652,50.872340414877485,50.872340414877485,50.87233573867445,trig,R-3,0.0012709,-11.9316874095,-0.361035941782736,0.045626537,False,3.034640100146826,1.032599999999999,False,269.0871249796568,,
mp-1080140,SnPS3,10,Sn1 P1 S3,6.750296,6.762189303735367,7.201777086123744,81.07238482950856,71.88532174844623,60.05816343077287,mono,C2/m,0.0,-11.9316585795,-0.36100711178273703,0.045655367,False,3.016077494444856,1.0053,False,270.7432356763062,,
mp-13923,SnPS3,20,Sn1 P1 S3,7.57141576,6.596566975487068,11.859499654632444,56.10713322711196,90.0,90.0,mono,Pc,0.0,-11.9773139465,-0.40666247878273604,0.0,True,3.321603737114868,2.1301,False,491.6797092754763,,
mp-4252,SnPS3,20,Sn1 P1 S3,7.731397,6.6306069999999995,11.407352397316961,55.94071228298779,90.0,90.0,mono,P2_1/c,0.0043895,-11.9702777645,-0.39962629678273703,0.007036182,False,3.371034759891824,1.8226,False,484.4699850693268,"{'voigt': 17.191, 'reuss': 15.255, 'vrh': 16.223}","{'voigt': 13.161, 'reuss': 10.751, 'vrh': 11.956}"
mp-570370,SnPSe3,20,Sn1 P1 Se3,7.87900693,6.919610534528547,12.235921338658214,55.61381463660815,90.0,90.0,mono,Pc,0.0,-15.625067152,-0.288478995032735,0.002049227500002,False,4.663962457921832,1.497399999999999,False,550.5226376276487,,
mp-5706,SnPSe3,20,Sn1 P1 Se3,7.895084,6.959541,11.993902183696514,55.658703177086394,90.0,90.0,mono,P2_1/c,0.0028682,-15.623900579000003,-0.28731242203273805,0.003215800499999,False,4.7186128187544725,1.348599999999999,False,544.1465559382784,"{'voigt': 18.246, 'reuss': 16.412, 'vrh': 17.329}","{'voigt': 12.419, 'reuss': 10.237, 'vrh': 11.328}"
mp-673705,SnPSe3,20,Sn1 P1 Se3,7.729164,7.7644269999999995,11.068819327766851,65.46915072711472,90.0,90.0,mono,P2_1/c,0.0025339,-15.448968942000002,-0.112380785032738,0.178147437499999,False,4.248843425929607,0.5105000000000001,False,604.3096101075289,,
mp-1101720,SnPbO3,40,Sn1 Pb1 O3,5.838096,8.186615,11.820277,90.0,90.0,90.0,ortho,Pbam,0.0011149,-6.314707455,-1.8014870669999992,0.07625807849999601,False,8.792266045783204,1.356899999999999,False,564.9412064548399,,
mp-504543,SnPbO3,20,Sn1 Pb1 O3,7.606152483752084,7.606152483752084,7.606152483752084,60.00000000000001,60.00000000000001,60.00000000000001,cubic,Fd-3m,0.0420892,-6.2356597515,-1.722439363499999,0.155305781999995,False,7.981674139050671,0.0,False,311.1573650366707,"{'voigt': 106.995, 'reuss': 106.995, 'vrh': 106.995}","{'voigt': 47.104, 'reuss': 46.516, 'vrh': 46.81}"
mp-978952,SnPbO3,5,Sn1 Pb1 O3,4.127671,4.127671,4.127671,90.0,90.0,90.0,cubic,Pm-3m,0.0012709,-6.274211259999999,-1.760990871999999,0.11675427349999601,False,8.828742790401577,1.0389,False,70.32588763341295,"{'voigt': 146.405, 'reuss': 146.405, 'vrh': 146.405}","{'voigt': 80.193, 'reuss': 79.899, 'vrh': 80.046}"
mp-1188095,SnPbS3,20,Sn1 Pb1 S3,3.85485,9.06626,14.432815,90.0,90.0,90.0,ortho,Pnma,0.0090929,-4.759090673,-0.731631147499998,0.007081248999996,False,5.558311572013088,1.0929,False,504.4134958079262,,
mp-1018636,SnPd3C,5,Sn1 Pd3 C1,4.252861,4.252861,4.252861,90.0,90.0,90.0,cubic,Pm-3m,0.0008523,-5.635662036,0.11991451950000001,0.5334003644999981,False,9.714029519183192,0.0,False,76.92075982376096,"{'voigt': 153.925, 'reuss': 153.925, 'vrh': 153.925}","{'voigt': 33.686, 'reuss': 28.501, 'vrh': 31.093}"
mp-20446,SnPt3C,5,Sn1 Pt3 C1,4.298023,4.298023,4.298023,90.0,90.0,90.0,cubic,Pm-3m,0.0049859,-5.9472361760000005,0.3430912855,0.6445537544999981,False,14.974052617303999,0.0,False,79.39738622229692,,
mp-1013537,Sr3AsN,5,Sr3 As1 N1,5.8,5.8,5.8,90.0,90.0,90.0,cubic,Pm-3m,0.0002275,-13.743429835999999,0.11122313774999901,1.163282138000001,False,2.993963545670183,0.0,False,195.112,,
mp-1013555,Sr3AsN,5,Sr3 As1 N1,5.09566939,5.09566939,5.09566939,90.0,90.0,90.0,cubic,Pm-3m,0.0,-14.906711974,-1.052059000250003,0.0,True,4.414959864983109,0.4218,True,132.31336935948244,"{'voigt': 47.628, 'reuss': 47.628, 'vrh': 47.628}","{'voigt': 39.476, 'reuss': 38.693, 'vrh': 39.085}"
mp-1013532,Sr3AsP,5,Sr3 As1 P1,5.79,5.79,5.79,90.0,90.0,90.0,cubic,Pm-3m,0.0227872,-14.590088149041668,-0.7607700471369071,0.49071674691666606,False,3.154654124905472,0.0,False,194.104539,,
mp-1013553,Sr3AsP,5,Sr3 As1 P1,5.7,5.7,5.7,90.0,90.0,90.0,cubic,Pm-3m,0.0015214999999990002,-14.791989779041666,-0.962671677136904,0.288815116916667,False,3.306456964459915,0.0,False,185.193,"{'voigt': 31.673000000000002, 'reuss': 31.673000000000002, 'vrh': 31.673000000000002}","{'voigt': 24.455, 'reuss': 18.223, 'vrh': 21.339}"
mp-1013564,Sr3BiAs,5,Sr3 Bi1 As1,5.88,5.88,5.88,90.0,90.0,90.0,cubic,Pm-3m,6.410000000000001e-05,-24.789536078666668,-1.060178490166669,0.115534188749999,False,4.465966311338832,0.0,False,203.29747199999997,"{'voigt': 28.457, 'reuss': 28.457, 'vrh': 28.457}","{'voigt': 21.598, 'reuss': 16.883, 'vrh': 19.241}"
mp-1013705,Sr3BiAs,5,Sr3 Bi1 As1,6.196805,6.196805,6.196805,90.0,90.0,90.0,cubic,Pm-3m,0.0020256,-24.220201148666668,-0.490843560166666,0.68486911875,False,3.8154338706012663,0.0,False,237.9597424366504,,
mp-1013531,Sr3BiN,5,Sr3 Bi1 N1,6.23,6.23,6.23,90.0,90.0,90.0,cubic,Pm-3m,0.009438199999999002,-22.090887981999998,0.5227135432500001,1.565679219999999,False,3.336449626421829,0.0,False,241.80436700000004,,
mp-570008,Sr3BiN,5,Sr3 Bi1 N1,5.23493993,5.23493993,5.23493993,90.0,90.0,90.0,cubic,Pm-3m,0.0,-23.656567201999998,-1.04296567675,0.0,True,5.623589410715984,0.256899999999999,True,143.46141423607256,"{'voigt': 43.271, 'reuss': 43.271, 'vrh': 43.271}","{'voigt': 36.36, 'reuss': 36.36, 'vrh': 36.36}"
mp-1013530,Sr3BiP,5,Sr3 Bi1 P1,6.183845,6.183845,6.183845,90.0,90.0,90.0,cubic,Pm-3m,0.0002015,-22.91041068004167,-0.32214402663691105,0.808740276874999,False,3.53086255972197,0.0,False,236.46985548666805,,
mp-1013643,Sr3BiP,5,Sr3 Bi1 P1,5.776749,5.776749,5.776749,90.0,90.0,90.0,cubic,Pm-3m,0.0003057,-23.674799522041674,-1.086532868636914,0.044351434874997,False,4.331178725986247,0.0,False,192.7749031069175,"{'voigt': 30.724, 'reuss': 30.724, 'vrh': 30.724}","{'voigt': 23.774, 'reuss': 19.852, 'vrh': 21.813}"
mp-1013585,Sr3BiSb,5,Sr3 Bi1 Sb1,6.163906,6.163906,6.163906,90.0,90.0,90.0,cubic,Pm-3m,0.0001527,-3.286778262,-0.6675142980000001,0.310150757,False,4.208964484504038,0.0,False,234.18982454672246,"{'voigt': 23.823, 'reuss': 23.823, 'vrh': 23.823}","{'voigt': 16.974, 'reuss': 10.338, 'vrh': 13.656}"
mp-1013706,Sr3BiSb,5,Sr3 Bi1 Sb1,6.216867,6.216867,6.216867,90.0,90.0,90.0,cubic,Pm-3m,0.0006003,-3.138934002,-0.519670038,0.457995017,False,4.102310731353994,0.0,False,240.27839885840416,,
mp-30950,Sr3GeO,20,Sr3 Ge1 O1,7.16585385,7.13911044,10.12552174,90.0,90.0,90.0,ortho,Pnma,0.0,-4.488673586500001,-1.5590189605,0.0,True,4.507172912605396,0.31880000000000003,True,517.9996391565651,,
mp-1013536,Sr3PN,5,Sr3 P1 N1,5.67,5.67,5.67,90.0,90.0,90.0,cubic,Pm-3m,0.000401,-12.640626758637499,0.072935280017262,1.025654681362501,False,2.804307431800587,0.0,False,182.28426299999998,,
mp-1013554,Sr3PN,5,Sr3 P1 N1,5.05920313,5.05920313,5.05920313,90.0,90.0,90.0,cubic,Pm-3m,0.0,-13.66628144,-0.95271940134524,0.0,True,3.94755735582669,0.519699999999999,True,129.49301741662526,"{'voigt': 49.284, 'reuss': 49.284, 'vrh': 49.284}","{'voigt': 40.515, 'reuss': 39.119, 'vrh': 39.817}"
mp-19944,Sr3PbO,5,Sr3 Pb1 O1,5.17250966,5.17250966,5.17250966,90.0,90.0,90.0,cubic,Pm-3m,7e-07,-4.333599781999998,-1.586021312999998,0.0,True,5.832228256708868,0.0,False,138.38975205740917,,
mp-1013541,Sr3SbAs,5,Sr3 Sb1 As1,6.11,6.11,6.11,90.0,90.0,90.0,cubic,Pm-3m,0.0001187,-3.250920229999999,-0.475638621499999,0.6171049647500021,False,3.345417302479203,0.0,False,228.09913100000003,,
mp-1013561,Sr3SbAs,5,Sr3 Sb1 As1,5.848444,5.848444,5.848444,90.0,90.0,90.0,cubic,Pm-3m,1.15e-05,-3.686491058,-0.9112094495,0.18153413675000102,False,3.814634410210719,0.127999999999999,True,200.04191685716947,,
mp-1013534,Sr3SbN,5,Sr3 Sb1 N1,6.221556,6.221556,6.221556,90.0,90.0,90.0,cubic,Pm-3m,0.289729199999999,-3.053826613999999,0.45508603700000005,1.483031114000001,False,2.748643644532301,0.0,False,240.822490633365,,
mp-7752,Sr3SbN,5,Sr3 Sb1 N1,5.19496514,5.19496514,5.19496514,90.0,90.0,90.0,cubic,Pm-3m,0.0,-4.536857728000001,-1.027945077000001,0.0,True,4.72136492046329,0.25769999999999904,True,140.19996748628466,"{'voigt': 45.977, 'reuss': 45.977, 'vrh': 45.977}","{'voigt': 38.147, 'reuss': 38.085, 'vrh': 38.116}"
mp-1013535,Sr3SbP,5,Sr3 Sb1 P1,6.100651,6.100651,6.100651,90.0,90.0,90.0,cubic,Pm-3m,0.0002152,-3.245869344,-0.32151753692857105,0.7330771138055561,False,3.039412006106536,0.0,False,227.0536788858342,,
mp-1013588,Sr3SbP,5,Sr3 Sb1 P1,5.74,5.74,5.74,90.0,90.0,90.0,cubic,Pm-3m,0.001344699999999,-3.882774534,-0.9584227269285711,0.096171923805556,False,3.649072067027213,0.34189999999999904,True,189.119224,"{'voigt': 31.726, 'reuss': 31.726, 'vrh': 31.726}","{'voigt': 24.92, 'reuss': 20.249, 'vrh': 22.585}"
mp-30949,Sr3SiO,20,Sr3 Si1 O1,7.15066135,7.13016274,10.10705953,90.0,90.0,90.0,ortho,Pnma,0.0,-4.5339772284999995,-1.443864567499999,0.0,True,3.956389438884266,0.4234,True,515.312261967182,,
mp-7961,Sr3SnO,5,Sr3 Sn1 O1,5.1518472,5.1518472,5.1518472,90.0,90.0,90.0,cubic,Pm-3m,3e-07,-4.4494984880000015,-1.642535061999999,0.0,True,4.828065204758819,0.0,False,136.73790480998701,"{'voigt': 44.124, 'reuss': 44.124, 'vrh': 44.124}","{'voigt': 35.923, 'reuss': 35.626, 'vrh': 35.774}"
mp-979294,SrAgO3,5,Sr1 Ag1 O3,4.110248,4.110248,4.110248,90.0,90.0,90.0,cubic,Pm-3m,0.09316529999999901,-5.262007024,-1.386157267333332,0.11355891899999801,False,5.822637136845707,0.0,False,69.43909948075958,"{'voigt': 110.647, 'reuss': 110.647, 'vrh': 110.647}","{'voigt': 49.977, 'reuss': 41.078, 'vrh': 45.527}"
mp-1218359,SrAl3Ag,5,Sr1 Al3 Ag1,4.311460144505666,4.311459144505689,6.586643957644776,70.93354533935646,70.93354555177294,90.09816395518932,tet,I4mm,0.0,-11.636818318,-0.29725167699999905,0.0,True,4.228205135668483,0.0,False,108.56320239854425,,
mp-1068011,SrAlH3,5,Sr1 Al1 H3,4.585462,4.585462,4.585462,90.0,90.0,90.0,cubic,Pm-3m,0.0,-6.214976065428571,0.23364325532142802,0.6990129102857161,False,2.025819567088134,0.07439999999999901,False,96.41604136487081,,
mp-978862,SrAlO3,5,Sr1 Al1 O3,3.835760999999999,3.835760999999999,3.835760999999999,90.0,90.0,90.0,cubic,Pm-3m,0.9822713999999991,-7.088056108000001,-3.031678721000001,0.050849522249998,False,4.7842550400047905,0.0,False,56.43579113290282,,
mp-978851,SrAsO3,5,Sr1 As1 O3,3.974879,3.974879,3.974879,90.0,90.0,90.0,cubic,Pm-3m,7.64e-05,-6.5149823,-2.2736955725,0.24607856972222003,False,5.56687622512511,0.0,False,62.80174892271716,"{'voigt': 144.779, 'reuss': 144.779, 'vrh': 144.779}","{'voigt': 86.781, 'reuss': 86.252, 'vrh': 86.516}"
mp-1187146,SrAuO3,5,Sr1 Au1 O3,4.13584,4.13584,4.13584,90.0,90.0,90.0,cubic,Pm-3m,0.0005235999999990001,-5.382753778,-1.420715157,0.274543589999995,False,7.8065701441959625,0.0,False,70.7442566555607,,
mp-1189840,SrBO3,20,Sr1 B1 O3,5.804943,6.846787,7.057235,90.0,90.0,90.0,ortho,Pnma,3.9986132,-7.4675276725,-2.824387097333333,0.06246880725000101,False,3.4675076036038472,0.452399999999999,False,280.49127487221403,,
mp-1187143,SrBeO3,5,Sr1 Be1 O3,3.733877,3.733877,3.733877,90.0,90.0,90.0,cubic,Pm-3m,1.9990117,-6.24200261,-2.186857816,0.376971984999999,False,4.613479639488415,0.0,False,52.0571061965092,,
mp-29164,SrBiO3,20,Sr1 Bi1 O3,5.95496434659285,6.14411663,8.505410726660756,90.0,90.03479930266933,90.0,mono,P2_1/c,0.0,-6.345887718,-2.260618635000001,0.0,True,7.355103194029816,0.3106,False,311.1958717643233,,
mp-28476,SrBiSe3,80,Sr1 Bi1 Se3,4.267801,16.126631,33.812572,90.0,90.0,90.0,ortho,P2_12_12_1,0.015348299999999001,-4.5096661205,-1.2956267539062511,0.0,True,6.090620380234483,0.7976000000000001,True,2327.158785571961,,
mp-1218370,SrCO3,5,Sr1 C1 O3,4.388278395494182,4.388278395494182,4.388278805979515,72.2593960667674,72.2593960667674,72.25939194463263,trig,R32,0.00042649999999900005,-7.82071605,-2.6677207305,0.031704977500006004,False,3.288793327351459,4.5332,False,74.53905776639496,,
mp-33746,SrCO3,10,Sr1 C1 O3,4.371562498240761,4.371562498240761,8.370437803504068,71.76304181835475,71.76304181835475,72.89891293508445,mono,C2/m,0.0021433,-7.816263382,-2.6632680625000003,0.036157645500006004,False,3.4810206038648612,4.2823,False,140.84579421162286,,
mp-38035,SrCO3,10,Sr1 C1 O3,6.916295304080429,6.916295304080429,6.916295008986965,44.68017162656825,44.68017162656825,44.6801688176816,trig,R-3c,5.43e-05,-7.82919642,-2.6762011004999993,0.023224607500006003,False,3.2953514255281,4.6569,False,148.78143430174455,,
mp-3822,SrCO3,20,Sr1 C1 O3,5.11695695,5.98602397,8.43766419,90.0,90.0,90.0,ortho,Pnma,0.0,-7.852421027500003,-2.6994257080000033,0.0,True,3.794093427062427,4.4416,False,258.4475691195478,"{'voigt': 62.295, 'reuss': 58.8, 'vrh': 60.547}","{'voigt': 30.307, 'reuss': 28.368, 'vrh': 29.338}"
mp-978842,SrCaO3,5,Sr1 Ca1 O3,4.376349,4.376349,4.376349,90.0,90.0,90.0,cubic,Pm-3m,1.9999402,-5.886164708,-2.177782510999999,0.467312725999996,False,3.480772355288368,0.0,False,83.81772037171805,,
mp-22428,SrCeO3,20,Sr1 Ce1 O3,6.00426811,6.17442523,8.60143538,90.0,90.0,90.0,ortho,Pnma,0.0,-8.108783837999999,-3.614131642999999,0.008514477999996,False,5.743441228739315,2.2817,False,318.88019245785824,"{'voigt': 113.436, 'reuss': 113.104, 'vrh': 113.27}","{'voigt': 51.76, 'reuss': 51.565, 'vrh': 51.662}"
mp-1272815,SrCoO3,20,Sr1 Co1 O3,5.490195545156202,6.73615954309323,6.7360861107103585,70.94369733890274,90.0001564953029,90.00014446355296,ortho,Amm2,12.794274,-6.6941995435,-1.960253978499999,0.039565767854840006,False,5.4879828648204,0.0,False,235.46734734172708,,
mp-1273854,SrCoO3,20,Sr1 Co1 O3,3.8754526766768804,3.897168604313906,15.373474110626914,89.9585336892516,90.0407578647819,89.56967036681591,tet,P4/mmm,0.009511499999999,-6.698450142,-1.964504577,0.035315169354840005,False,5.565603437986736,0.0,False,232.1834068550809,,
mp-1283849,SrCoO3,10,Sr1 Co1 O3,3.9383422600002826,5.354912304932228,5.3549236299598775,90.0124363569864,90.000014412659,90.00001050359467,tet,P4/mbm,6.1961069,-6.715478788,-1.981533223,0.01828652335484,False,5.721295147113838,0.0,False,112.93253836834432,,
mp-505766,SrCoO3,10,Sr1 Co1 O3,5.4943434335762085,5.49429747159307,5.494332826970532,60.00007663182507,89.9994322162452,119.99999574286068,cubic,Pm-3m,0.0008774999999990001,-6.651910965000001,-1.9179654,0.081854346354839,False,5.509182073849565,0.0,False,117.28063713577293,,
mp-550781,SrCoO3,20,Sr1 Co1 O3,4.924415325429914,5.5205153077339615,9.69211594595076,89.962293208972,94.70025655465142,89.99433842282549,mono,P2_1/m,2.286279399999999,-6.6462547354999995,-1.9123091705,0.08751057585484101,False,4.921002986387556,0.0,False,262.5970297133935,,
mp-562466,SrCoO3,20,Sr1 Co1 O3,4.928848,5.500237099176908,9.631704485920132,89.64130917189108,84.25562479170148,89.90167421539745,tri,P-1,3.9999997,-6.660390812999999,-1.926445247999999,0.073374498354841,False,4.9740322030934,0.0,False,259.7974268506855,,
mp-1325463,SrCrO3,70,Sr1 Cr1 O3,5.55380746343065,5.55380746343065,32.278374,90.0,90.0,119.99977918387579,ortho,Cmcm,1.4968986,-7.683591969857144,-2.445720254857144,0.198580512080359,False,5.058458409032564,0.0,False,862.2334892881977,,
mp-1372100,SrCrO3,30,Sr1 Cr1 O3,5.555374678202181,5.555374678202181,13.685607,90.0,90.0,120.28367076555611,ortho,Cmcm,9.8501638,-7.7131214539999995,-2.4752497389999992,0.169051027937503,False,5.124994466571006,0.0,False,364.7311738206685,,
mp-20029,SrCrO3,5,Sr1 Cr1 O3,3.893204,3.893204,3.893204,90.0,90.0,90.0,cubic,Pm-3m,2.0150808,-7.809627400000001,-2.5717556850000003,0.072545081937501,False,5.279509212613665,0.0,False,59.00943857782975,,
mp-752441,SrCrO3,30,Sr1 Cr1 O3,5.5051157343205785,5.5051157343205785,13.533804,90.0,90.0,119.99999680711359,hex_,P6_3/mmc,11.999597,-7.796441788,-2.5585700730000003,0.085730693937502,False,5.262387804534491,0.0,False,355.208570148742,,