mp_id,formula,sites,composition,a_edge (angstrom),b_edge (angstrom),c_edge (angstrom),alpha_ang (deg),beta_ang (deg),gamma_ang (deg),crystal_system,space_group,total_magnetisation (bohr),energy_per_atom (eV/atom),formation_energy (eV/atom),energy_above_hull (eV/atom),stable,density (g/cc),band_gap (eV),direct_bandgap,volume (cubic-angstrom),bulk_modulus (GPa),shear_modulus (GPa)
mp-1183772,CoMoO3,5,Co1 Mo1 O3,3.9836,3.9836,3.9836,90.0,90.0,90.0,cubic,Pm-3m,4.3210656,-7.612427733999999,-1.047837765,0.6738278065000021,False,5.328963454597332,0.0,False,63.216023109056,,
mp-1213745,CoNF3,5,Co1 N1 F3,3.767843,3.767843,3.767843,90.0,90.0,90.0,cubic,Pm-3m,6.779742,-4.62857344,-0.3873471665,1.334819984499994,False,4.033640634730144,0.0,False,53.490713935524425,,
mp-1178424,CoNiO3,10,Co1 Ni1 O3,4.8055490050337,4.805845659834199,5.174955284197486,62.331766289330474,117.67114531616811,120.00704791023897,trig,R-3,2.000238,-6.688139230999999,-1.136651947999999,0.0,True,6.296421914378502,0.0,False,87.35959763657713,,
mp-1272234,CoNiO3,10,Co1 Ni1 O3,4.883114861620501,5.03164125483137,5.443205871532785,60.58390489817441,118.18480636414579,120.2580249884949,tri,P1,3.9984017,-6.66452157,-1.113034286999999,0.023617660999999002,False,5.727980852771099,0.7645000000000001,False,96.02910678797514,,
mp-1279343,CoNiO3,10,Co1 Ni1 O3,4.938243896254417,4.885106582134519,5.333241495744309,63.16126913667934,116.91750976696633,120.35388387503937,tri,P-1,1.6000000000000003e-05,-6.68777252,-1.136285236999999,0.000366710999998,False,5.804929235591629,0.9607000000000001,False,94.7561740490661,,
mp-676437,CoPS3,10,Co1 P1 S3,5.76964478987225,5.76964478987225,6.859621572375695,98.08595857275841,98.08595857275841,119.99106473804753,mono,C2/m,2.0029148,-9.556377166785714,-0.288116229068452,0.103177752357144,False,3.256566889859762,0.0,False,189.78855980601156,,
mp-1178420,CoPbO3,20,Co1 Pb1 O3,5.522138104893249,5.774708535432502,9.552708611021378,105.89324442548903,89.88966351561497,61.49456482865969,trig,R-3,8.170000000000002e-05,-6.4182856405,-1.280296279499999,0.04938460399999801,False,8.205797052471079,0.0,False,254.2726563221419,,
mp-755569,CoPbO3,20,Co1 Pb1 O3,5.326255,5.430663,7.560218,90.0,90.0,90.0,ortho,Pnma,1.7015945000000001,-6.3287549965,-1.190765635499999,0.13891524799999802,False,9.541382462844483,0.0,False,218.68003110633003,,
mp-770488,CoPbO3,40,Co1 Pb1 O3,5.367635,7.646726,10.812615,90.0,90.0,90.0,ortho,Pbam,2.8472328,-6.31544372475,-1.177454363749999,0.152226519749998,False,9.402886266734846,0.0,False,443.8019890028436,,
mp-1183715,CoRhO3,5,Co1 Rh1 O3,3.8938300000000003,3.8938300000000003,3.8938300000000003,90.0,90.0,90.0,cubic,Pm-3m,4.2389291,-6.311539472,-0.44321795099999906,0.7968873444999961,False,5.902010642739138,0.0,False,59.037908071244885,,
mp-1183681,CoSbO3,5,Co1 Sb1 O3,3.764758999999999,3.764758999999999,3.764758999999999,90.0,90.0,90.0,cubic,Pm-3m,0.0018907,-6.28937231,-1.068112115,0.580026283874999,False,7.116842923310956,0.29549999999999904,False,53.359474093335905,,
mp-22616,CoSeO3,20,Co1 Se1 O3,5.091809,6.015058,7.660772,90.0,90.0,90.0,ortho,Pnma,12.0008623,-6.3759718795,-1.2813296369687501,0.029257131125000002,False,5.262400707726104,1.851999999999999,False,234.63049713342954,,
mp-562826,CoSeO3,80,Co1 Se1 O3,9.453972891982925,9.455632534165286,15.21171728827094,72.62075671469343,72.61310858654058,64.47336131182715,mono,C2/c,0.0038762,-6.405229010625,-1.31058676809375,0.0,True,4.302175398727449,0.0,False,1147.9956810076205,,
mp-699575,CoSiO3,80,Co1 Si1 O3,5.264575,9.044314,18.463858,90.0,90.0,90.0,ortho,Pbca,48.0057909,-7.93103831725,-2.45051476425,0.021916500583335,False,4.080334769363951,2.614699999999999,False,879.1468013139676,,
mp-1183692,CoSnO3,5,Co1 Sn1 O3,3.742693,3.742693,3.742693,90.0,90.0,90.0,cubic,Pm-3m,0.073429399999999,-6.292458915999999,-1.095084597999999,0.683751723500002,False,7.146859736015265,0.0,False,52.426711210164086,,
mp-752613,CoSnO3,20,Co1 Sn1 O3,5.394922,5.422766,7.81053,90.0,90.0,90.0,ortho,Pnma,11.9984819,-6.899944682999999,-1.702570364999999,0.07626595650000201,False,6.559055799122409,0.9832000000000001,True,228.5001761928931,,
mp-761574,CoSnO3,20,Co1 Sn1 O3,5.359883576243518,5.668033854482346,9.280310523007838,105.84800919728957,89.99906723573152,61.79111671694261,trig,R-3,12.0019952,-6.941385221999999,-1.7440109039999991,0.034825417500002,False,6.34473178596197,0.0,False,236.2188751736575,,
mp-19113,CoTeO3,20,Co1 Te1 O3,5.397197418601343,6.0669593419363705,7.567832225444351,89.9969851147812,89.97892513329172,89.95961347769304,ortho,Pnma,11.9994146,-6.424383082999999,-1.4002619573333321,0.047210725500001,False,6.286361178799385,0.0,False,247.80538862775018,,
mp-985545,CoTeO3,5,Co1 Te1 O3,3.779381,3.779381,3.779381,90.0,90.0,90.0,cubic,Pm-3m,0.3665543,-5.758078242000001,-0.733957116333333,0.713515566499999,False,7.214198003818167,0.0,False,53.98362278600855,,
mp-1247505,CoWN3,20,Co1 W1 N3,5.628246968441239,7.471724805925202,7.900309469496369,114.85631680278641,110.18237342381562,79.03076356777014,tri,P-1,0.0017534999999990002,-18.360212501874997,0.037443002875002004,0.31609546050000104,False,6.695033731068769,0.1728,False,282.54399380165324,,
mp-1079324,Cr3AsC,10,Cr3 As1 C1,5.3375963775446715,5.3375963775446715,7.465583,90.0,90.0,147.59899210207226,ortho,Cmcm,3.0393979,-8.643539288,-0.07195320099999901,0.06190623975000101,False,7.078671928528282,0.0,False,113.97029003596667,,
mp-22209,Cr3AsN,10,Cr3 As1 N1,5.4703694975951125,5.4703694975951125,5.4703694975951125,121.57493575995308,121.57493575995308,87.29311230853378,tet,I4/mcm,5.1964721,-8.731255336,-0.337746798499999,0.11051347949999901,False,7.206964012976778,0.0,False,112.86127740517577,,
mp-3000,Cr3GaN,5,Cr3 Ga1 N1,3.829202,3.829202,3.829202,90.0,90.0,90.0,cubic,Pm-3m,0.3719384,-13.462109368666665,-0.303798610416666,0.022125520833334,False,7.089651899013551,0.0,False,56.14677696976979,"{'voigt': 295.563, 'reuss': 295.563, 'vrh': 295.563}","{'voigt': 116.7, 'reuss': 104.775, 'vrh': 110.737}"
mp-29804,Cr3GeC,10,Cr3 Ge1 C1,5.34181642626373,5.34181642626373,7.648346,90.0,90.0,148.8567973254752,ortho,Cmcm,2.7992277,-8.621903115,-0.0597359635,0.034794967249998004,False,7.080418386129338,0.0,False,112.87199107622281,,
mp-637918,Cr3GeN,10,Cr3 Ge1 N1,5.330989,5.330989,4.010243,90.0,90.0,90.0,tet,P-42_1m,0.0487519,-13.924182488000003,-0.280031403750001,0.019643323999996,False,7.070437355734573,0.0,False,113.9688752344887,,
mp-505628,Cr3IrN,5,Cr3 Ir1 N1,3.89412981,3.87556191,3.87562293,90.0,90.0,90.0,cubic,Pm-3m,1.4924314,-21.699193622000003,-0.35756736375000103,0.011030992666661,False,10.283129653541746,0.0,False,58.49067323430664,,
mp-1078492,Cr3PC,10,Cr3 P1 C1,5.1210172954882704,5.1210172954882704,7.258164,90.0,90.0,146.24606809212696,ortho,Cmcm,3.0252997,-8.964522721,-0.24386643542857,0.034978444500000004,False,6.248127603381867,0.0,False,105.76033828485518,,
mp-1080816,Cr3PN,10,Cr3 P1 N1,4.953841908683905,4.953841908683905,7.105107,90.0,90.0,142.7360972213807,ortho,Cmcm,4.1012055,-13.15938588485714,-0.48921505420237804,0.012799570000002002,False,6.321903074369742,0.0,False,105.57469057701651,,
mp-10373,Cr3PdN,5,Cr3 Pd1 N1,3.839933,3.839933,3.839933,90.0,90.0,90.0,cubic,Pm-3m,0.067367799999999,-15.720709775999996,-0.258863485749992,0.074729002666668,False,8.106619033183105,0.0,False,56.62014018611297,"{'voigt': 1860.568, 'reuss': 1860.568, 'vrh': 1860.568}","{'voigt': 94.681, 'reuss': 92.292, 'vrh': 93.487}"
mp-10374,Cr3PtN,5,Cr3 Pt1 N1,3.91539656,3.91236156,3.91239065,90.0,90.0,90.0,cubic,Pm-3m,6.8029994,-21.469100001999998,-0.30180105374999705,0.108209408000004,False,10.115305395485436,0.0,False,59.93174878989092,,
mp-21244,Cr3RhN,5,Cr3 Rh1 N1,3.819403,3.819403,3.819403,90.0,90.0,90.0,cubic,Pm-3m,0.7504328,-16.00929701133333,-0.31229571708333004,0.026633222666667,False,8.133303417155991,0.0,False,55.71683709583436,,
mp-10376,Cr3SnN,5,Cr3 Sn1 N1,3.936886,3.936886,3.936886,90.0,90.0,90.0,cubic,Pm-3m,2.866661,-15.992818949666665,-0.17382662541666302,0.12584810233333402,False,7.856785298277307,0.0,False,61.01807711709627,,
mp-19299,CrBO3,10,Cr1 B1 O3,5.44564479878669,5.445645191507977,5.445640516282243,49.791994161047306,49.79199044782916,49.79199963662472,trig,R-3c,6.0000002,-8.855383028,-2.620118576833333,0.0,True,4.247466035697327,0.0,False,86.63825814730751,,
mp-1181841,CrBiO3,10,Cr1 Bi1 O3,13.244400374068846,5.817435676812336,9.060490957093274,102.50987379294052,136.9608450740823,72.76072966992693,mono,Cc,12.0002676,-5.7346057550000005,-0.057212796,1.946944696000001,False,2.255004037656982,0.029800000000000004,False,455.0453581219345,,
mp-23456,CrBiO3,20,Cr1 Bi1 O3,5.567582328375397,9.763593378060149,5.567568029054517,73.72882512304803,60.18539801379336,73.72870367654123,mono,C2/c,3.24e-05,-7.6588676630000005,-1.981474704000001,0.022682788000000002,False,8.2605226129062,1.293699999999999,True,248.44169502757873,,
mp-546027,CrBiO3,10,Cr1 Bi1 O3,5.515867917632361,5.515866200873084,5.515333777678802,89.99986695162391,59.996841526273734,59.99991400218514,trig,R3c,0.0,-7.666845409999999,-1.9894524509999991,0.014705041000002,False,8.64845289310953,1.9846999999999992,False,118.64886501255923,,
mp-559851,CrBiO3,20,Cr1 Bi1 O3,5.3978029800173,5.568480390000614,7.716616670017745,89.99996686171228,89.9997373947319,89.99994394362619,ortho,Pnma,0.0,-7.670347761000002,-1.992954802000002,0.011202689999999,False,8.84812721008082,1.790499999999999,False,231.942668887704,,
mp-1202206,CrCl3O,40,Cr1 Cl3 O1,5.95601,14.526972,12.160058291778457,90.0,99.34618791822086,90.0,mono,P2_1/c,8.0474427,-5.232928135250001,-1.20360444425,0.145302104531248,False,2.23105298950496,1.4763,False,1038.1553824116054,,
mp-1206044,CrCoBr3,10,Cr1 Co1 Br3,7.0819794898302275,7.0819794898302275,5.943138,90.0,90.0,119.99999523402165,hex_,P6_3/mmc,4.0000001,-4.54526904,-0.205808281,0.768115015,False,4.511140548565831,0.0,False,258.1402917698158,,
mp-1205501,CrCoCl3,10,Cr1 Co1 Cl3,5.691366,6.574257619786207,6.574257619786207,119.99999617375167,90.0,90.0,hex_,P6_3/mmc,14.772684,-9.712790391999999,-0.359812349499999,0.780623853999999,False,3.387465064396805,0.0,False,213.029918067453,,
mp-1183696,CrCuO3,5,Cr1 Cu1 O3,3.698776999999999,3.698776999999999,3.698776999999999,90.0,90.0,90.0,cubic,Pm-3m,1.0001263,-6.743428025999999,-1.024200594999999,0.5850320386250011,False,5.366602669462742,0.0,False,50.60278799076263,,
mp-1206130,CrFe3N,5,Cr1 Fe3 N1,3.80931,3.80931,3.80931,90.0,90.0,90.0,cubic,Pm-3m,8.5161222,-8.570452476,0.109825293,0.48384087200000103,False,7.015640584768632,0.0,False,55.27629811449449,,
mp-1078458,CrFeO3,10,Cr1 Fe1 O3,5.047006350221019,5.0461280362738306,5.409819622053433,62.18937192794541,117.81455598083213,120.00422549490209,trig,R-3,15.9967779,-8.620241222,-2.026850883,0.009988677999988,False,5.148927639504908,0.0,False,100.51694794704083,,
mp-1244876,CrFeO3,80,Cr1 Fe1 O3,10.12006643449345,10.478226356882733,10.910006713883956,93.22044296048321,88.31479474294504,82.27422987269698,tri,P1,112.0011107,-7.871101631,-1.277711291999998,0.7591282689999891,False,3.619926268186483,0.7842,False,1143.7901287033228,,
mp-1244905,CrFeO3,80,Cr1 Fe1 O3,10.521853442825417,10.276026926671141,9.523828031152972,96.17737423098235,99.54326460621927,83.86445829058022,tri,P1,112.0000033,-8.199979077875001,-1.606588738875,0.43025082212498705,False,4.118099469379599,0.10199999999999901,False,1005.4239736004539,,
mp-1245072,CrFeO3,80,Cr1 Fe1 O3,10.352727356116551,10.126989834941922,9.956553453339664,85.03185829718606,86.4923846401027,88.16394058063801,tri,P1,116.0000505,-8.182853863375,-1.589463524374998,0.44737603662498904,False,3.990322905096773,0.47850000000000004,False,1037.6192680790436,,
mp-1245144,CrFeO3,80,Cr1 Fe1 O3,10.252635765305476,10.894557668590725,9.426688667326719,92.83451381499064,94.6276090371373,95.69280771162227,tri,P1,112.0000102,-8.22247648325,-1.6290861442499982,0.40775341674998805,False,3.971338978378312,0.44070000000000004,False,1042.579330227886,,
mp-1245147,CrFeO3,80,Cr1 Fe1 O3,10.021260800818446,10.936568268558393,9.34707862773875,91.27039424097728,93.00455528701563,89.38567011465057,tri,P1,110.0000007,-8.171789855750001,-1.578399516749999,0.458440044249988,False,4.048469000259947,0.43409999999999904,False,1022.7164718118642,,
mp-1245179,CrFeO3,80,Cr1 Fe1 O3,9.957239187202346,9.965952653590573,10.003745609490178,89.27478508571548,87.93391509414947,92.19663766995254,tri,P1,111.9999424,-8.23121358425,-1.6378232452499981,0.399016315749989,False,4.177055683186698,0.42550000000000004,True,991.2331187854305,,
mp-1245204,CrFeO3,80,Cr1 Fe1 O3,10.072279480451334,10.2726998073615,10.034464533697351,90.90018278522403,97.93299623625698,87.42766252630831,tri,P1,118.0004563,-8.24865710575,-1.6552667667499992,0.381572794249988,False,4.030635954437641,0.6733,False,1027.2413532229396,,
mp-1245260,CrFeO3,80,Cr1 Fe1 O3,9.655590124420607,10.195672146571749,10.500629162584456,88.81757557835326,96.66938364259396,87.76435527873029,tri,P1,110.0000017,-8.222712766250002,-1.629322427249999,0.40751713374998705,False,4.036968378438651,0.42240000000000005,False,1025.63001342778,,
mp-8829,CrGaSe3,20,Cr1 Ga1 Se3,3.76641143,10.26003063,12.49218408,90.0,90.0,90.0,ortho,Pnma,12.0000004,-5.4955389035,-0.8617633184062491,0.0,True,4.934049389189811,0.0,False,482.7416734840412,,
mp-1183712,CrGeO3,5,Cr1 Ge1 O3,3.743292,3.743292,3.743292,90.0,90.0,90.0,cubic,Pm-3m,3.9998534,-7.3711530199999995,-1.547161351999999,0.606627581,False,5.465313354129075,0.0,False,52.451887167378345,,
mp-541449,CrGeTe3,10,Cr1 Ge1 Te3,8.224837870196936,8.224837553576972,8.22483707632014,49.62885504052775,49.628848328554916,49.62884944994099,trig,R-3,6.0000001,-5.160704222999993,-0.41950562199999203,0.0,True,5.675113858694391,0.0,False,296.951740117861,"{'voigt': 76079626.609, 'reuss': 6.463, 'vrh': 38039816.536}","{'voigt': 961402788.312, 'reuss': 11.496, 'vrh': 480701399.904}"
mp-28532,CrInBr3,20,Cr1 In1 Br3,15.155061,4.295885,9.532445970535054,83.86088559433617,90.0,90.0,mono,P2_1/c,16.0047702,-4.437823075500001,-0.9732109118333331,0.049995815833333006,False,4.376033208199131,0.0,False,617.0451077727013,,
mp-756147,CrInO3,20,Cr1 In1 O3,5.247183001174916,5.450137001194557,7.729873000004787,89.99989555138553,90.0000698181932,89.99758950280018,ortho,Pnma,2.2200000000000004e-05,-7.5802655195,-2.129044673833333,0.051282904499999005,False,6.454494653224261,1.4521000000000002,False,221.0578738076804,,
mp-1226313,CrMoO3,5,Cr1 Mo1 O3,3.9702682453622704,3.9702682453622704,3.970268471729966,80.63273246324442,80.63273246324442,80.63274194316406,trig,R3,5.9996983,-8.717012552,-1.6484964329999992,0.444497286249994,False,5.39333395535818,0.0,False,60.32568395170272,,
mp-31703,CrOF3,20,Cr1 O1 F3,5.331868,5.331868,9.119184,90.0,90.0,90.0,tet,P4_1,4.000892,-6.308078555500001,-2.24098948,0.19245038049999802,False,3.202374106429325,2.1933,False,259.24760737498946,,
mp-1101069,CrPSe3,10,Cr1 P1 Se3,6.3468227650689135,6.3468227650689135,7.011822922081033,81.34023461130961,81.34023461130961,119.91643135443573,mono,C2/m,5.8711051,-5.655635716,-0.5443846303348211,0.041522398999999,False,4.549599723463025,0.0,False,233.48128344501615,,
mp-22364,CrPbO3,5,Cr1 Pb1 O3,3.917057,3.917057,3.917057,90.0,90.0,90.0,cubic,Pm-3m,2.0004248,-7.3799187,-1.7380031889999992,0.156582255999999,False,8.487554511181017,0.0,False,60.100719885198174,,
mp-1183719,CrRhO3,5,Cr1 Rh1 O3,3.916935,3.916935,3.916935,90.0,90.0,90.0,cubic,Pm-3m,2.6781449,-7.131647658,-0.7593999869999991,0.9724235252499951,False,5.606497365687114,0.0,False,60.0951043992927,,
mp-9130,CrSbS3,20,Cr1 Sb1 S3,3.64237683,8.85576533,12.90915925,90.0,90.0,90.0,ortho,Pnma,11.9999999,-6.024536980500001,-0.785111497999999,0.0,True,4.306111367360514,0.0,False,416.3982854873654,,
mp-15236,CrSbSe3,20,Cr1 Sb1 Se3,3.82541442,9.32794413,13.52534271,90.0,90.0,90.0,ortho,Pnma,11.9978041,-5.540308448999999,-0.6863518204062491,0.0,True,5.651366987063736,0.0,False,482.6282120889446,"{'voigt': 32.824, 'reuss': 29.902, 'vrh': 31.363}","{'voigt': 20.963, 'reuss': 18.032, 'vrh': 19.498}"
mp-3779,CrSiTe3,10,Cr1 Si1 Te3,8.25989701330844,8.259897759715772,8.25989744397035,48.84663890841112,48.846638220550844,48.84664312404128,trig,R-3,6.0000001,-5.340600707999999,-0.438944071999998,0.0,True,5.24219001666974,0.0,False,293.2488053909239,,
mp-1183695,CrTcO3,5,Cr1 Tc1 O3,3.892617999999999,3.892617999999999,3.892617999999999,90.0,90.0,90.0,cubic,Pm-3m,4.8320309,-8.371840446,-1.400326559999999,0.6304814391249931,False,5.574121430837644,0.0,False,58.98279651663666,,
mp-1226283,CrWO3,5,Cr1 W1 O3,4.846085590340517,4.846085590340517,4.846085245184303,86.69283228848695,86.69283228848695,86.69284859422802,trig,R3,3.9999609,-8.879733188,-1.3887210449999992,0.7269175708000121,False,4.161361585819264,0.8863000000000001,False,113.26051194329801,,
mp-505212,Cs3AuO,10,Cs3 Au1 O1,7.85221889,7.852218079072923,7.08932365,90.0,90.0,119.99999908838025,hex_,P6_3/mmc,0.0,-3.05530406,-0.8716979867931051,0.0,True,5.366422164251121,1.3261,False,378.54733206767725,"{'voigt': 7.839, 'reuss': 7.727, 'vrh': 7.783}","{'voigt': 171951365621.348, 'reuss': 50.002, 'vrh': 85975682835.675}"
mp-1205638,Cs3BrO,10,Cs3 Br1 O1,7.841265710534725,7.841265710534725,7.12849225,90.0,90.0,119.99999873890985,hex_,P6_3/mmc,0.0,-3.4093318509999992,-1.553112870793104,0.0,True,4.327627694375486,1.551499999999999,False,379.57767416983114,,
mp-562420,Cs3ClO,20,Cs3 Cl1 O1,4.44156614,9.55407043,16.43001581,90.0,90.0,90.0,ortho,Pnma,0.0,-3.512819365499999,-1.6142823602931031,0.001736146500001,False,4.28866263952995,1.6127999999999991,False,697.2083077949837,,
mp-1206444,Cs3IO,10,Cs3 I1 O1,8.115433730602422,8.115433730602422,7.2073345,90.0,90.0,120.00000187994061,hex_,P6_3/mmc,0.0,-3.290399018999997,-1.456766822793102,0.0,True,4.375676368508151,1.5285000000000002,True,411.08229598899504,,
mp-1183923,CsAcO3,5,Cs1 Ac1 O3,4.870277,4.870277,4.870277,90.0,90.0,90.0,cubic,Pm-3m,1.9999826,-6.161423332,-2.188665903431034,0.220435034999997,False,5.863348429784877,0.0,False,115.52101286493193,,
mp-1399321,CsAgBr3,5,Cs1 Ag1 Br3,5.497825,5.494482,5.494832419031176,89.94623728987666,90.0,90.0,ortho,Amm2,0.0047664,-2.9694168000000003,-1.238915519264368,0.0,True,4.806817055371613,0.0,False,165.98617894748145,,
mp-1946459,CsAgBr3,5,Cs1 Ag1 Br3,5.41674293,5.420254856645592,5.421173362525217,90.01879224361949,90.0,90.0,cubic,Pm-3m,0.2422433,-2.966918579999999,-1.236417299264368,0.002498219999999,False,5.012776206807697,0.0,False,159.16633079233864,,
mp-998344,CsAgBr3,5,Cs1 Ag1 Br3,5.494832831765767,5.497825357722723,5.494481653435472,89.97403466928844,89.94622685158929,89.94686602698708,mono,Pm,0.0008236999999990001,-2.9693970060000003,-1.238895725264368,1.9793999999961894e-05,False,4.806819244203732,0.0,False,165.98610336405272,,
mp-28610,CsAgCl3,10,Cs1 Ag1 Cl3,7.263081570232512,7.263081939629576,7.367583411811183,119.5239302098639,119.52393105536339,90.01406475624412,tet,I4/mmm,4e-07,-14.24546407,-1.262984392499998,0.0,True,4.136571188964022,0.0,False,278.6981311044577,"{'voigt': 14.175, 'reuss': 12.565, 'vrh': 13.37}","{'voigt': 6.9, 'reuss': 734.068, 'vrh': 370.484}"
mp-561920,CsAgF3,10,Cs1 Ag1 F3,6.253492187216049,6.25349197965228,6.253492715603402,91.29504521203148,119.25515595346462,119.25513891884242,tet,I4/mcm,6.49e-05,-13.231506153000002,-2.066297088499999,0.0,True,5.6567037492314665,0.0,False,174.82153892359406,,
mp-1189272,CsAlTe3,20,Cs1 Al1 Te3,14.12703173,7.282067060423886,8.29657145302371,76.08096222852528,90.0,90.0,mono,P2_1/c,0.0,-22.4229650635,-0.8063699015000021,0.0,True,4.351085130486324,1.3209,False,828.4397309046539,,
mp-1178465,CsAsO3,10,Cs1 As1 O3,5.041437671253111,5.041437671253111,9.994093,90.0,90.0,119.99999568581015,trig,P-31m,0.0001525,-5.872535957,-1.7899890234310352,0.10051655749999401,False,3.862243598557912,2.192,False,219.97981958535757,,
mp-1183911,CsAsO3,5,Cs1 As1 O3,4.075589,4.075589,4.075589,90.0,90.0,90.0,cubic,Pm-3m,0.0004725,-5.210400732,-1.127853798431035,0.7626517824999941,False,6.275110295414904,0.0,False,67.69726825568856,,