mp_id,formula,sites,composition,a_edge (angstrom),b_edge (angstrom),c_edge (angstrom),alpha_ang (deg),beta_ang (deg),gamma_ang (deg),crystal_system,space_group,total_magnetisation (bohr),energy_per_atom (eV/atom),formation_energy (eV/atom),energy_above_hull (eV/atom),stable,density (g/cc),band_gap (eV),direct_bandgap,volume (cubic-angstrom),bulk_modulus (GPa),shear_modulus (GPa)
mp-1290304,CdFeO3,20,Cd1 Fe1 O3,5.37915512955464,5.506005087310218,7.669568101414381,89.99227199072672,90.26211391639292,89.98123974426123,mono,P2_1/c,15.9991184,-6.1633916635,-1.308608780499999,0.092556619,False,6.323486941800345,0.0,False,227.15223465874132,,
mp-1639105,CdFeO3,20,Cd1 Fe1 O3,5.368368192207573,5.489292527349403,7.667267014813753,89.99821875925718,89.99297410554797,89.29287302273563,mono,P2_1/m,2.0922816,-6.156007203,-1.30122432,0.0999410795,False,6.357808778789962,0.0,False,225.92598167740076,,
mp-776476,CdFeO3,20,Cd1 Fe1 O3,5.363036612373255,5.450160573611387,7.6697380668393755,90.00236178458947,90.01492687696283,90.05260592521059,ortho,Pnma,15.9991066,-6.170801069,-1.316018186,0.085147213499999,False,6.407273253808278,0.0,False,224.18182162147863,,
mp-1016903,CdGeO3,5,Cd1 Ge1 O3,3.78249,3.78249,3.78249,90.0,90.0,90.0,cubic,Pm-3m,0.000467099999999,-5.64122451,-1.555840297999999,0.32436161274999803,False,7.150943527391868,0.10220000000000001,False,54.11695667257225,"{'voigt': 182.736, 'reuss': 182.736, 'vrh': 182.736}","{'voigt': 89.297, 'reuss': 83.154, 'vrh': 86.226}"
mp-1227040,CdGeO3,10,Cd1 Ge1 O3,3.3593982718531605,7.5614942760217705,7.5614942760217705,130.8875306715622,82.46524285322315,82.46524285322315,mono,Cc,0.0002756,-5.230886904,-1.145502691999999,0.7346992187499981,False,5.616969526379604,0.074199999999999,True,137.79220244027488,,
mp-13003,CdGeO3,20,Cd1 Ge1 O3,5.311913,5.36356,7.580681,90.0,90.0,90.0,ortho,Pnma,0.001446499999999,-5.8255737844999995,-1.740189572499999,0.140012338249999,False,7.1671152297722465,0.8481000000000001,True,215.97939401466786,,
mp-2951,CdGeO3,20,Cd1 Ge1 O3,7.045613409750849,7.045613409750849,5.399845231119934,81.38321713487095,81.38321713487095,86.93910728662821,mono,C2/c,0.0,-5.942425548499999,-1.8570413364999991,0.023160574249999,False,5.910380819331949,1.5369000000000002,False,261.9034629877659,,
mp-685935,CdGeO3,10,Cd1 Ge1 O3,6.070451386960364,6.070451386960364,5.227937,90.0,90.0,126.466866093451,ortho,Cmc2_1,0.0004816,-5.846945601,-1.7615613890000001,0.118640521749998,False,4.995626273283812,1.723999999999999,False,154.93044510132876,"{'voigt': 60.877, 'reuss': 59.247, 'vrh': 60.062}","{'voigt': 18.394, 'reuss': 52.695, 'vrh': 35.545}"
mp-7588,CdGeO3,80,Cd1 Ge1 O3,10.898857622093198,10.898857622093198,10.898857622093198,109.12437034270246,109.12437034270246,110.16717080891355,tet,I4_1/a,0.0100401,-5.926822038875001,-1.841437826875,0.038764083874998,False,6.213606936349901,1.3002,False,996.4899421647862,,
mp-8275,CdGeO3,10,Cd1 Ge1 O3,5.904042869766445,5.904042869766445,5.904043562787287,52.19537208052127,52.19537208052127,52.195380955635336,trig,R-3,1.899999999999999e-06,-5.921550844,-1.836166631999999,0.044035278749998005,False,6.5129473542720255,1.4099,False,118.83630558937064,"{'voigt': 148.486, 'reuss': -30801.307, 'vrh': -15326.411}","{'voigt': 33152265200.214, 'reuss': -624542327.804, 'vrh': 16263861436.205}"
mp-1096862,CdHCl3,5,Cd1 H1 Cl3,5.218407,5.218407,5.218407,90.0,90.0,90.0,cubic,Pm-3m,1.7276392,-2.26190631,-0.28174898825,0.9342443930000011,False,2.568143881333393,0.0,False,142.10646763194086,,
mp-505222,CdInBr3,20,Cd1 In1 Br3,4.14038678,9.58047134,15.51440356,90.0,90.0,90.0,ortho,Pnma,0.0,-2.8275302260000013,-1.1015255183333341,0.008280995999998,False,5.039741075713652,2.2208,False,615.4076256288415,,
mp-1016828,CdIrO3,5,Cd1 Ir1 O3,3.953165,3.953165,3.953165,90.0,90.0,90.0,cubic,Pm-3m,1.0671558,-5.760263306000001,-0.8317978289999991,0.46319841499999903,False,9.478265062669584,0.0,False,61.77813947332076,,
mp-2647004,CdIrO3,30,Cd1 Ir1 O3,5.462063,5.462062977140506,15.028055,90.0,90.0,120.00000619471452,trig,R-3,2.8208124,-6.115731398666667,-1.1872659216666661,0.107730322333332,False,9.048323853594393,0.0,False,388.28158042161505,,
mp-1080000,CdNCl3,10,Cd1 N1 Cl3,7.511502454461824,7.511502454461824,7.402407,90.0,90.0,94.29612324088457,ortho,Cmcm,3.9996529,-9.709328372749999,-0.17111736199999802,0.5935919470000021,False,1.85615401720497,2.0259,False,416.4900116707763,,
mp-1080587,CdNCl3,10,Cd1 N1 Cl3,7.429165,5.8736809999999995,7.7028773072278,72.70934989086207,90.0,90.0,mono,P2_1/m,0.0005718,-9.57895180275,-0.040740791999998006,0.7239685170000011,False,2.408788186067089,0.8155,False,320.93714705180184,,
mp-1105591,CdNCl3,20,Cd1 N1 Cl3,3.775054,9.826511,16.867689,90.0,90.0,90.0,ortho,Pnma,8.0043463,-9.53736279925,0.0008482115000020001,0.765557520500001,False,2.470987211789244,0.0,False,625.7172069528243,,
mp-726169,CdNF3,20,Cd1 N1 F3,6.118864999999999,6.384258,8.450394,90.0,90.0,90.0,ortho,Pnma,0.0,-3.802580933999999,-0.7960359664999991,0.7851368685000001,False,3.690461932814561,0.0,False,330.1096797682404,,
mp-1206343,CdNi3C,5,Cd1 Ni3 C1,3.866162,3.866162,3.866162,90.0,90.0,90.0,cubic,Pm-3m,0.0009653999999990001,-5.478348936,0.0274682085,0.027468208500001003,False,8.634877406888368,0.0,False,57.78832993499817,,
mp-1017554,CdNi3N,5,Cd1 Ni3 N1,3.82153146,3.82154162,3.82153349,90.0,90.0,90.0,cubic,Pm-3m,1.1000000000000001e-05,-13.136453223999998,-0.10067525574999901,0.0,True,9.000316018979303,0.0,False,55.8102159363317,"{'voigt': 182.751, 'reuss': 182.751, 'vrh': 182.751}","{'voigt': 69.829, 'reuss': 69.234, 'vrh': 69.531}"
mp-1016882,CdOsO3,5,Cd1 Os1 O3,3.942935,3.942935,3.942935,90.0,90.0,90.0,cubic,Pm-3m,0.034405899999999004,-6.441248956,-1.034996828999999,0.35957308519999404,False,9.498405606100683,0.0,False,61.29977114342224,"{'voigt': 192.236, 'reuss': 192.236, 'vrh': 192.236}","{'voigt': 27.293, 'reuss': 16.927, 'vrh': 22.11}"
mp-5328,CdPS3,10,Cd1 P1 S3,6.253369407095604,6.253369838009483,7.0848005096184705,98.18604280979399,98.18605262071631,119.9979750112384,mono,C2/m,0.0,-11.169029075000001,-0.526616825282738,0.0,True,3.459377513709595,1.756199999999999,False,230.0018155238127,,
mp-9330,CdPS3,10,Cd1 P1 S3,7.640597266972337,7.640596798849732,7.640597503171515,48.311747988306806,48.31174226482739,48.31173570024584,trig,R-3,0.0,-11.168225917000001,-0.525813667282737,0.000803158000007,False,3.489075664701975,1.772699999999999,False,228.04409683199663,"{'voigt': 212594205.627, 'reuss': 1.094, 'vrh': 106297103.36}","{'voigt': 1139303033.136, 'reuss': 4.462, 'vrh': 569651518.799}"
mp-1079559,CdPSe3,10,Cd1 P1 Se3,7.973598430355033,7.973598429424054,7.97359780353028,48.6026436454699,48.602643687402995,48.6026444749079,trig,R-3,0.0,-3.954065545,-0.581421915334821,0.0,True,4.825860987294309,1.0486,False,261.691952841095,,
mp-685257,CdPbO3,40,Cd1 Pb1 O3,9.085826745827244,9.085836674819712,9.085830952518872,110.51172589563295,109.8982517491642,108.01415580284775,ortho,Ibca,0.0,-5.27843203125,-1.375123976249999,0.0,True,8.462073206254711,0.0,False,577.0968158397645,,
mp-1016875,CdRhO3,5,Cd1 Rh1 O3,3.951587,3.951587,3.951587,90.0,90.0,90.0,cubic,Pm-3m,1.2863278,-5.479369706,-0.8457294909999991,0.424103885,False,7.086137227330518,0.0,False,61.70418835153962,,
mp-1016849,CdRuO3,5,Cd1 Ru1 O3,3.928223,3.928223,3.928223,90.0,90.0,90.0,cubic,Pm-3m,2.1207008,-6.094784726,-1.0791255770000001,0.33393210100000004,False,7.1630476902911,0.0,False,60.61615746211363,,
mp-18634,CdSO3,30,Cd1 S1 O3,8.335829749612513,8.335829749612513,8.335829817920528,109.10807618547899,109.10807618547899,109.1080820289121,trig,R-3,0.0004948,-5.617649814666667,-1.629199260166666,0.09906163908333301,False,4.244667362884329,3.0449,False,451.7822968281786,,
mp-556680,CdSO3,40,Cd1 S1 O3,12.82371,5.653769,8.753289224087196,79.78013993450485,90.0,90.0,mono,P2_1/c,5.27e-05,-5.6204807809999995,-1.632030226499999,0.09623067275000001,False,4.093872104016965,3.2188,True,624.5645595014557,,
mp-8516,CdSO3,20,Cd1 S1 O3,9.025715,4.573479,7.283293351582442,88.92985652425467,90.0,90.0,mono,P2_1/c,0.003597099999999,-5.620434524,-1.631983969499999,0.096276929749999,False,4.253057560808945,3.334699999999999,False,300.59403038203004,,
mp-559203,CdSeO3,40,Cd1 Se1 O3,12.93395545,5.760079370423445,8.662010624186387,78.5515790544974,90.0,90.0,mono,P2_1/c,0.0,-5.268916143250001,-1.408955206718751,0.005526024750001001,False,5.027554029995879,3.4047,True,632.4855475554016,,
mp-9186,CdSeO3,20,Cd1 Se1 O3,5.32817807,6.31758539,8.12471485,90.0,90.0,90.0,ortho,Pnma,0.0,-5.274442168000002,-1.4144812314687512,0.0,True,5.81352277375989,3.0904,False,273.4878134372338,,
mp-1016879,CdSiO3,5,Cd1 Si1 O3,3.61992,3.61992,3.61992,90.0,90.0,90.0,cubic,Pm-3m,0.0007266,-6.4069444959999995,-2.161102249,0.374506266500001,False,6.598592705861918,0.6505999999999991,False,47.43478301350349,"{'voigt': 228.217, 'reuss': 228.217, 'vrh': 228.217}","{'voigt': 122.007, 'reuss': 85.214, 'vrh': 103.61}"
mp-560560,CdSiO3,60,Cd1 Si1 O3,7.28599731,6.992660796204553,15.107757884567725,85.1239040001858,90.0,90.0,mono,P2_1/c,0.0,-6.781450762500001,-2.5356085155,0.0,True,4.897479561547846,2.8901000000000003,False,766.931992499724,,
mp-776023,CdSiO3,40,Cd1 Si1 O3,5.519971,9.745057,9.852316,90.0,90.0,90.0,ortho,Pbcn,0.0025586,-6.75465183,-2.508809583,0.026798932500001003,False,4.724748711745973,2.7666999999999993,True,529.9800388010572,,
mp-1016881,CdSnO3,5,Cd1 Sn1 O3,4.057399,4.057399,4.057399,90.0,90.0,90.0,cubic,Pm-3m,7.99e-05,-5.454133626,-1.4914406139999992,0.346307218000002,False,6.938980318308384,0.0,False,66.7948768517519,"{'voigt': 152.367, 'reuss': 152.367, 'vrh': 152.367}","{'voigt': 66.139, 'reuss': 62.242, 'vrh': 64.191}"
mp-1182642,CdSnO3,10,Cd1 Sn1 O3,6.704443504277891,8.489199226038933,3.365316349901744,89.84814720464516,120.33625722831562,73.32165020362447,mono,P2_1/m,0.000462599999999,-5.720829872,-1.7581368599999991,0.079610972000002,False,5.949277673370609,0.7079000000000001,True,155.81331424913833,,
mp-754329,CdSnO3,10,Cd1 Sn1 O3,5.933372170789357,5.933372292533809,5.933373282982338,55.148473446278835,55.14848065641943,55.148484509725876,trig,R-3,0.0,-5.800440844000002,-1.8377478320000011,0.0,True,7.073964607426622,0.9762000000000001,False,131.04061486299892,,
mp-849371,CdSnO3,20,Cd1 Sn1 O3,5.47790823,5.60073751,7.91411222,90.0,90.0,90.0,ortho,Pnma,0.0,-5.7700575915000005,-1.807364579499999,0.030383252500001002,False,7.6354849403898974,0.690399999999999,True,242.8075437023761,,
mp-1189706,CdTcO3,20,Cd1 Tc1 O3,5.457801,5.548414,7.891164,90.0,90.0,90.0,ortho,Pnma,9.7481544,-6.785474975,-1.552568544999999,0.11591081350000002,False,7.18272824752602,0.0,False,238.9613288887264,,
mp-28290,CdTeO3,40,Cd1 Te1 O3,11.30735991,7.451632651827147,7.831885008582168,66.4474482738255,90.0,90.0,mono,P2_1/c,0.0,-5.31107154725,-1.521631727583333,0.0,True,6.3247319197303185,3.019,False,604.9274931616135,,
mp-10036,Ce3AlC,5,Ce3 Al1 C1,4.98731642,4.98731967,4.98728285,90.0,90.0,90.0,cubic,Pm-3m,2.5469901,-6.384507629999999,-0.22748944349999703,0.0,True,6.148730535293477,0.0,False,124.05038839781575,"{'voigt': 64.659, 'reuss': 64.659, 'vrh': 64.659}","{'voigt': 44.04, 'reuss': 42.144, 'vrh': 43.092}"
mp-10881,Ce3AlN,5,Ce3 Al1 N1,4.90922468,4.90926019,4.90924297,90.0,90.0,90.0,cubic,Pm-3m,2.5442481,-22.576308064,-0.8997610077499981,0.0,True,6.474752646871416,0.0,False,118.31600198715861,,
mp-1206367,Ce3AlO,5,Ce3 Al1 O1,4.827101,4.827101,4.827101,90.0,90.0,90.0,cubic,Pm-3m,1.5256043,-6.7061688660000005,-1.405291576999998,0.0264691155,False,6.840366415089138,0.0,False,112.47581730920871,,
mp-1069526,Ce3InC,5,Ce3 In1 C1,5.839523,5.839523,5.839523,90.0,90.0,90.0,cubic,Pm-3m,2.9768282,-4.174138044,1.785599725166668,2.104923641999996,False,4.562938059286391,0.0,False,199.12790287259952,,
mp-20992,Ce3InC,5,Ce3 In1 C1,5.04591409,5.0459467,5.04587929,90.0,90.0,90.0,cubic,Pm-3m,2.5884167,-6.279061685999997,-0.319323916833328,0.0,True,7.072245460382699,0.0,False,128.47521933070757,,
mp-20550,Ce3PbC,5,Ce3 Pb1 C1,5.986195,5.986195,5.986195,90.0,90.0,90.0,cubic,Pm-3m,3.9170515,-4.386246108,1.7641863265000022,2.047164122666665,False,4.95081763190947,0.0,False,214.5124877735204,,
mp-20159,Ce3SnC,5,Ce3 Sn1 C1,5.843293,5.843293,5.843293,90.0,90.0,90.0,cubic,Pm-3m,3.6746229,-4.591966948,1.617850443500001,2.007927047666665,False,4.586504783776145,0.0,False,199.51382324234328,,
mp-1206922,Ce3SnN,5,Ce3 Sn1 N1,4.97328277,4.97332533,4.97330351,90.0,90.0,90.0,cubic,Pm-3m,3.0449487,-7.078435411999999,-1.046695569999997,0.0,True,7.466035504515731,0.0,False,123.00846147221452,,
mp-1245828,Ce3SnN,5,Ce3 Sn1 N1,5.878219,5.878219,5.878219,90.0,90.0,90.0,cubic,Pm-3m,4.8073011,-4.746509804,1.285230038000001,2.331925607999999,False,4.521554301822287,0.0,False,203.11279692854276,,
mp-21319,Ce3TlC,5,Ce3 Tl1 C1,5.862354,5.862354,5.862354,90.0,90.0,90.0,cubic,Pm-3m,2.9385982,-4.065410932000001,1.816786511833333,2.00400804333333,False,5.248032005932487,0.0,False,201.47265968457953,,
mp-1226650,CeAl3Ag,5,Ce1 Al3 Ag1,4.305624526627817,4.305624506986283,6.321598308523454,70.16755410863973,70.16752024642554,90.10063256377069,tet,I4mm,1.030045,-4.353065484000001,-0.34974247633333205,0.0,True,5.31349794003353,0.0,False,102.79464769359234,,
mp-1070063,CeAl3Au,5,Ce1 Al3 Au1,6.250577622912466,6.250577622912466,6.250577622912466,139.58926066478784,139.58926066478784,58.47748185861234,tet,I4mm,0.961297299999999,-4.669232456,-0.579720583999998,0.0,True,6.8267201710026,0.0,False,101.68140100567089,,
mp-1069443,CeAl3Cu,5,Ce1 Al3 Cu1,6.094870782988166,6.094870782988166,6.094870782988166,139.42411823310115,139.42411823310115,58.72874577866877,tet,I4mm,0.932715299999999,-12.869336412000001,-0.49259246200000106,0.0,True,4.980354881022077,0.0,False,94.89291736008357,,
mp-1226654,CeAl3Cu,5,Ce1 Al3 Cu1,6.130488723085868,6.130488723085868,6.130488723085868,139.71461618158253,139.71461618158253,58.28687054422797,tet,I-4m2,0.4629253,-12.787664178,-0.41092022800000005,0.08167223400000001,False,4.951197712519546,0.0,False,95.4517334166851,,
mp-1226634,CeAl3Pd,5,Ce1 Al3 Pd1,6.263127719281956,6.263127719281956,6.263127719281956,140.9531418866156,140.9531418866156,56.40890758067778,tet,I-4m2,0.3650811,-15.421425855833343,-0.621950383833342,0.07429680566666401,False,5.622127336199421,0.0,False,96.72394870688436,,
mp-1226648,CeAl3Pt,5,Ce1 Al3 Pt1,6.278851231922205,6.278851231922205,6.278851231922205,141.40997204204623,141.40997204204623,55.7185829810156,tet,I-4m2,0.390417099999999,-5.352577743999999,-0.703615607999998,0.088338031333341,False,7.229821615241062,0.0,False,95.57972916432833,,
mp-19843,CeAlO3,20,Ce1 Al1 O3,5.29975512,5.3516261400000005,7.53646362,90.0,90.0,90.0,ortho,Imma,4.0000001,-8.525620271,-3.620338527999999,0.0,True,6.683927317617278,0.0,False,213.7515026909713,,
mp-3408,CeAlO3,10,Ce1 Al1 O3,5.310341728653377,5.310343356386387,5.310340091238828,60.419023500008294,60.41902344162003,60.4189528898534,trig,R-3c,2.0,-8.524981815,-3.619700071999999,0.000638455999995,False,6.6828728991216835,0.0,False,106.8926141185251,,
mp-4096,CeAlO3,10,Ce1 Al1 O3,5.330749433749146,5.330749433749146,5.330749433749146,120.30143003712028,120.30143003712028,89.47869597856925,tet,I4/mcm,2.0,-8.520020075000001,-3.614738332,0.0056001959999940005,False,6.699830082698576,0.0,False,106.62207029006254,"{'voigt': 185.423, 'reuss': 185.303, 'vrh': 185.363}","{'voigt': 22.77, 'reuss': 62.244, 'vrh': 42.507}"
mp-5323,CeAlO3,5,Ce1 Al1 O3,3.76203913,3.76203913,3.76201474,90.0,90.0,90.0,cubic,Pm-3m,1.0000001,-8.508505242,-3.603223498999999,0.017115028999995,False,6.708320355031181,0.0,False,53.243562933991896,"{'voigt': 191.964, 'reuss': 191.964, 'vrh': 191.964}","{'voigt': 57.814, 'reuss': 39.622, 'vrh': 48.718}"
mp-776167,CeAlO3,20,Ce1 Al1 O3,5.352054,5.353887,7.640165,90.0,90.0,90.0,ortho,Pnma,4.0000001,-8.522544917000001,-3.617263174,0.0030753539999940002,False,6.526021045851421,0.0,False,218.92352138921584,,
mp-1078398,CeAsO3,10,Ce1 As1 O3,5.329352,4.409537,6.185939894306523,74.6743194085263,90.0,90.0,mono,P2_1/m,2.0,-7.836076696000001,-2.7458856125,0.15253630916666802,False,6.230832471975322,0.0609,False,140.19995683687966,,
mp-1195015,CeAsO3,40,Ce1 As1 O3,7.83511,8.352207,9.157426652534324,76.50559667932941,90.0,90.0,mono,P2_1/c,4.3995096,-7.90909450425,-2.818903420749999,0.07951850091667001,False,5.9964256251811054,0.286099999999999,True,582.7221069567656,,
mp-20178,CeBO3,10,Ce1 B1 O3,4.123922230015337,5.07313499,6.26413284235435,90.0,107.7041530357546,90.0,mono,P2_1/m,2.0,-8.898571303,-3.406526371833334,0.005873612000007001,False,5.291666846074193,0.029300000000000003,False,124.84650887509291,,
mp-20882,CeBO3,20,Ce1 B1 O3,5.07545184,5.77348995,8.22244861,90.0,90.0,90.0,ortho,Pnma,4.0000001,-8.904444915000001,-3.412399983833333,0.0,True,5.483837776597158,0.058699999999999,False,240.9429887520787,,
mp-19948,CeBPd3,5,Ce1 B1 Pd3,4.381105,4.381105,4.381105,90.0,90.0,90.0,cubic,Pm-3m,0.8183758,-21.917328916333332,-0.503660158833332,0.20786606866666402,False,9.284718247713721,0.0,False,84.09128433161773,,
mp-22435,CeBPt3,5,Ce1 B1 Pt3,3.9975675600000002,3.9975675600000002,5.14411559,90.0,90.0,90.0,tet,P4mm,0.9056964,-39.518281412,-0.9882546805000001,0.0,True,14.870657773559776,0.0,False,82.20577785631383,,
mp-510376,CeBRh3,5,Ce1 B1 Rh3,4.211492039999999,4.2115074,4.211488969999999,90.0,90.0,90.0,cubic,Pm-3m,0.1962417,-22.919038982,-0.799905212499999,0.0,True,10.217884765623579,0.0,False,74.69804230192618,"{'voigt': 190.777, 'reuss': 190.777, 'vrh': 190.777}","{'voigt': 60.214, 'reuss': 52.932, 'vrh': 56.573}"
mp-1189296,CeBS3,20,Ce1 B1 S3,6.00989239,7.69555744,8.97561916,90.0,90.0,90.0,ortho,Pna2_1,3.9999998,-6.523589921999999,-1.517305853333331,0.012690893779999001,False,3.9541150544870782,0.078699999999999,False,415.117647879931,,
mp-1226619,CeBeAl3,5,Ce1 Be1 Al3,6.078223897509617,6.078223897509617,6.078223897509617,140.0484078297961,140.0484078297961,57.77980561405811,tet,I4mm,0.9203017,-4.49561226,-0.312994214999999,0.024206002115389,False,4.162448910446795,0.0,False,91.78367762064714,,
mp-1183685,CeBeO3,5,Ce1 Be1 O3,3.600447,3.600447,3.600447,90.0,90.0,90.0,cubic,Pm-3m,4.5e-06,-8.082590292,-3.178541142,0.41890689699999906,False,7.013334961429547,0.809399999999999,False,46.67338151802652,,
mp-1213812,CeCdO3,20,Ce1 Cd1 O3,6.005827127993696,6.002484069460326,8.480962,90.0,90.0,90.43534920234846,ortho,Cmcm,0.0005533,-7.0651081545,-2.716939539499999,0.177826717500001,False,6.529103599984977,1.544699999999999,False,305.7288508020773,,
mp-21116,CeCoGe3,5,Ce1 Co1 Ge3,4.297285198019675,4.297286285178925,5.758266039823102,111.90945441128501,111.90943593534122,89.99999529923558,tet,I4mm,0.9140908,-5.958657667999999,-0.570767636999998,0.0,True,7.665580972388106,0.0,False,90.32500476614855,,
mp-568089,CeCoSb3,40,Ce1 Co1 Sb3,6.174765298353113,12.115871850272256,12.791689441478034,90.0007211305886,90.039784361194,90.0004254919554,ortho,Pbcm,6.4822489,-5.759325205999994,-0.667851143999993,0.0,True,7.833731370250567,0.0,False,956.9801469364971,,
mp-1070753,CeCoSi3,5,Ce1 Co1 Si3,5.5480968803644,5.5480968803644,5.5480968803644,136.67322399889952,136.67322399889952,62.941219873955795,tet,I4mm,0.0033292,-6.527114158000001,-0.6578500220000001,0.0,True,5.925122784996504,0.0,False,79.39754017064506,,
mp-1226614,CeCoSi3,5,Ce1 Co1 Si3,5.732881217822849,5.732881217822849,5.732881217822849,139.52060105312572,139.52060105312572,58.581926011128175,tet,I-4m2,0.6115432,-6.338877355999999,-0.46961321999999905,0.188236802000001,False,5.9801702424520915,0.0,False,78.66668594117921,,
mp-20650,CeCrGe3,10,Ce1 Cr1 Ge3,6.10950878,6.109507321894468,5.94625055,90.0,90.0,120.00001351140608,hex_,P6_3/mmc,3.0485012,-6.3178807379999995,-0.426064556999998,0.0,True,7.084524239240195,0.0,False,192.21455036846925,,
mp-20530,CeCrO3,5,Ce1 Cr1 O3,3.90655,3.90655,3.90655,90.0,90.0,90.0,cubic,Pm-3m,4.0008028,-9.057196486,-2.970420415,0.19220243360000203,False,6.687745320618523,0.0,False,59.618378740261385,,