mp_id,formula,sites,composition,a_edge (angstrom),b_edge (angstrom),c_edge (angstrom),alpha_ang (deg),beta_ang (deg),gamma_ang (deg),crystal_system,space_group,total_magnetisation (bohr),energy_per_atom (eV/atom),formation_energy (eV/atom),energy_above_hull (eV/atom),stable,density (g/cc),band_gap (eV),direct_bandgap,volume (cubic-angstrom),bulk_modulus (GPa),shear_modulus (GPa)
mp-1080828,KCuF3,10,K1 Cu1 F3,3.95252198,5.773328732027035,5.773328732027035,90.03031511559666,90.0,90.0,tet,P4/mbm,1.998886199999999,-4.545465727,-2.35246306795,0.0054100730000000005,False,4.024321524400329,0.0,False,131.74277485354102,,
mp-3682,KCuF3,10,K1 Cu1 F3,5.754957273315415,5.754957273315415,5.754957273315415,119.83815272142174,119.83815272142174,90.28055704826426,tet,I4/mcm,0.0107941,-4.54848816,-2.35548550095,0.0023876400000000003,False,3.924213955500726,0.0,False,135.10356227752663,,
mp-556045,KCuF3,10,K1 Cu1 F3,6.329695505925384,6.329695505925384,6.329695505925384,111.69673457362113,111.69673457362113,105.10640251487378,tet,I4/mcm,0.0063919,-4.417160947,-2.22415828795,0.13371485299999902,False,2.727522642504095,0.0,False,194.37979222074796,,
mp-5566,KCuF3,10,K1 Cu1 F3,5.65059520368997,5.647021427757783,5.647021828262426,90.13977442552037,119.89847544107117,119.8984763307512,cubic,Pm-3m,0.0093765,-4.548677251999999,-2.35567459295,0.0021985480000000003,False,4.153368004245499,0.0,False,127.64948446306603,"{'voigt': 68.887, 'reuss': 68.887, 'vrh': 68.887}","{'voigt': 30.379, 'reuss': 30.321, 'vrh': 30.35}"
mp-669347,KCuF3,10,K1 Cu1 F3,5.680055154395369,5.6806797110914315,5.6806806802040315,92.48404254724504,118.57977551758299,118.57977739319853,tet,I4/mcm,0.000266,-4.5508758,-2.35787314095,0.0,True,4.008852461531502,0.0,False,132.2511341125257,"{'voigt': 98.494, 'reuss': 59.203, 'vrh': 78.848}","{'voigt': 40.374, 'reuss': 27.29, 'vrh': 33.832}"
mp-1147650,KCuH3,10,K1 Cu1 H3,5.371480941422949,5.371480941422949,5.371480941422949,114.42237783514977,114.42237783514977,99.96693584842785,tet,I4/mcm,0.0,-5.515403712999999,-0.069324284999999,0.046504395499999004,False,3.001902574057495,0.0,False,116.90322189038244,,
mp-1223513,KCuS3,5,K1 Cu1 S3,4.1767,3.4389440000000002,7.610688,90.0,90.0,90.0,ortho,Pmm2,0.004050499999999,-3.971876212,-0.44274519294999803,0.34333780272221803,False,3.020431692343385,0.0,False,109.3156406954625,,
mp-1211599,KDyBr3,20,K1 Dy1 Br3,7.64367,8.072648,11.057192,90.0,90.0,90.0,ortho,Pnma,3.9746176,-3.9942476695,-1.862130698283332,0.145281407055554,False,4.29625802970821,0.0,False,682.280243482244,,
mp-1206220,KDyI3,10,K1 Dy1 I3,8.236174971792732,8.236174971792732,11.668159,90.0,90.0,149.71905729255167,ortho,Cmcm,0.855148599999999,-3.513893937,-1.449537317783332,0.099411347555556,False,4.8455546260110784,0.0,False,399.10863379932886,,
mp-1184954,KDyO3,5,K1 Dy1 O3,4.46864,4.46864,4.46864,90.0,90.0,90.0,cubic,Pm-3m,2.0000281,-6.408429308,-2.289703654783333,0.264965222666666,False,4.644740792753513,0.0,False,89.23312572862054,,
mp-973830,KErO3,5,K1 Er1 O3,4.426509,4.426509,4.426509,90.0,90.0,90.0,cubic,Pm-3m,2.0061636,-6.434016167999999,-2.325421858449998,0.25583205266666703,False,4.869744499362977,0.0,False,86.7329373460614,"{'voigt': 65.414, 'reuss': 65.414, 'vrh': 65.414}","{'voigt': 20.08, 'reuss': -13.427, 'vrh': 3.327}"
mp-23348,KFeBr3,20,K1 Fe1 Br3,4.066261,9.526064,15.077003,90.0,90.0,90.0,ortho,Pnma,16.0014134,-4.173214274,-1.27076816645,0.051609727333332,False,3.806124839204965,0.0763,False,584.0146847215037,,
mp-23538,KFeCl3,20,K1 Fe1 Cl3,3.890847,8.862346,14.296414,90.0,90.0,90.0,ortho,Pnma,16.0002734,-4.6039819965,-1.57458181395,0.031317027833332005,False,2.7123008167977822,0.047700000000000006,False,492.9694099949901,,
mp-556891,KFeF3,5,K1 Fe1 F3,4.16531,4.16531,4.16531,90.0,90.0,90.0,cubic,Pm-3m,4.0001133,-5.572443112,-2.505277544949999,0.220190678999996,False,3.491201958354769,0.0,False,72.26732624504928,,
mp-1247740,KFeI3,20,K1 Fe1 I3,4.061135,9.790628,16.301125,90.0,90.0,90.0,ortho,Pnma,16.0172067,-3.5712286395,-0.736542883949999,0.14641465649999802,False,4.874467314441557,0.1892,False,648.1500424921121,,
mp-1097023,KFeO3,20,K1 Fe1 O3,5.089854,5.6112649999999995,13.329225,90.0,90.0,90.0,ortho,Pnma,11.9999611,-6.158917163,-1.26986237345,0.16200466933333502,False,2.493999836257702,0.5258,True,380.6895919360882,,
mp-1184987,KGdO3,5,K1 Gd1 O3,4.46096,4.46096,4.46096,90.0,90.0,90.0,cubic,Pm-3m,5.0031509,-8.327219786,-2.31694479045,0.18361395033333403,False,4.5705686121030915,0.0,False,88.77383613989274,,
mp-998412,KGeBr3,5,K1 Ge1 Br3,5.605409015064021,5.605409015064021,5.592046520467797,89.03163450397945,89.03163450397945,89.23977011620227,mono,Cm,5.9e-06,-3.49500829,-1.361960853449999,0.025231168000003003,False,3.322678412891685,0.9083000000000001,True,175.64051665487327,,
mp-998612,KGeBr3,10,K1 Ge1 Br3,5.981290952289009,7.42392971,8.48614585877323,90.0,114.54805460550905,90.0,mono,P2_1/m,0.0,-3.520239458000003,-1.387192021450002,0.0,True,3.40523440443936,2.902599999999999,False,342.7646286889748,,
mp-998231,KGeCl3,5,K1 Ge1 Cl3,5.356161585232656,5.356161585232656,5.335108327419042,89.0838283413616,89.0838283413616,89.1541508229154,mono,Cm,3e-07,-3.88745914,-1.62745762845,0.028222893000003003,False,2.367039892130837,1.4859,False,153.00083795544327,,
mp-998613,KGeCl3,10,K1 Ge1 Cl3,7.531836960600771,7.5318368801841435,7.531836491624698,61.68388526839689,61.68387771274781,61.68388726451028,trig,R3c,0.0,-3.9156820330000013,-1.655680521450001,0.0,True,2.310196857989364,2.8924000000000003,True,313.5309319788258,,
mp-998227,KHfO3,5,K1 Hf1 O3,4.177954,4.177954,4.177954,90.0,90.0,90.0,cubic,Pm-3m,1.0001286,-8.12971787,-2.943229516449999,0.040906271749994005,False,6.047336441525025,0.0,False,72.92743889412984,,
mp-7483,KHgF3,20,K1 Hg1 F3,6.40393385,6.41619267,9.04877947,90.0,90.0,90.0,cubic,Pm-3m,0.0,-3.63507531,-2.199979577450001,0.0,True,5.300151193979543,0.6082000000000001,False,371.80415431650613,"{'voigt': 50.671, 'reuss': 50.671, 'vrh': 50.671}","{'voigt': 15.636, 'reuss': 10.308, 'vrh': 12.972}"
mp-725939,KHgI3,20,K1 Hg1 I3,8.495221,9.296003,12.546216,90.0,90.0,90.0,ortho,Pna2_1,0.002495599999999,-2.1944688665,-0.991852945450001,0.014913207624997002,False,4.159090573297365,1.7116,True,990.7947502318428,,
mp-1184944,KHoO3,5,K1 Ho1 O3,4.448354,4.448354,4.448354,90.0,90.0,90.0,cubic,Pm-3m,2.0008854,-6.420753736,-2.306167295449999,0.26005436658333303,False,4.754423171005628,0.0,False,88.02337641990908,,
mp-1080058,KIO3,10,K1 I1 O3,6.287628715617037,6.287629181277343,6.2876295078257645,59.93186772683014,59.93186074646274,59.93187504603443,trig,R3c,0.0,-4.865071167499999,-1.365218096949998,0.001404900499999,False,4.049680418232495,2.8548,True,175.49877238480562,,
mp-1180816,KIO3,20,K1 I1 O3,7.851112932398818,7.851112932398818,9.07698019160205,54.80104569266172,54.80104569266172,70.47362088640322,mono,C2,0.0008416999999990001,-4.856070678,-1.356217607449999,0.010405389999998,False,3.8046401009166,2.813,True,373.60376965977224,,
mp-1200675,KIO3,40,K1 I1 O3,8.896428484268004,8.896428472952747,8.896427955745695,89.66984355532948,89.66985024659056,89.66984473197564,trig,R3,0.0,-4.865412280999999,-1.365559210449999,0.001063786999999,False,4.037656090559175,2.8533,True,704.0856635733552,,
mp-1223446,KIO3,5,K1 I1 O3,4.522157015279876,4.522157015279876,4.522156918585754,88.48517690131861,88.48517690131861,88.48517749732841,trig,R3,0.00015319999999900002,-4.8603130199999995,-1.36045994945,0.006163047999998001,False,3.846587597069343,2.529499999999999,False,92.38239400710273,,
mp-23487,KIO3,20,K1 I1 O3,7.672469030359981,7.690671943170661,7.680980049076039,109.51812941435247,109.0969225159442,109.3830158479503,tri,P1,0.0,-4.866476067999999,-1.366622997449999,0.0,True,4.053475826557709,2.7868,True,350.6688937400874,"{'voigt': 21.521, 'reuss': 20.541, 'vrh': 21.031}","{'voigt': 14.337, 'reuss': 13.883, 'vrh': 14.11}"
mp-552729,KIO3,5,K1 I1 O3,4.438137532787714,4.438136280002313,4.438868180122825,88.6674301475757,88.66744489795137,88.66447294151719,trig,R3m,0.0,-4.8597059195,-1.359852848949999,0.006770148499999001,False,4.067605629319784,2.568199999999999,True,87.36269032913107,,
mp-558843,KIO3,5,K1 I1 O3,4.200263,4.200263,4.200263,90.0,90.0,90.0,cubic,Pm-3m,0.0008085,-4.6682329,-1.16837982945,0.19824316799999803,False,4.795516453266358,0.0,False,74.10191883154758,,
mp-1110931,KInBr3,10,K1 In1 Br3,8.070099526445558,8.070099526445558,8.070099526445558,60.00000000000001,60.00000000000001,60.00000000000001,cubic,Fm-3m,0.0,-3.181974705000002,-1.421698090783334,0.097790080499998,False,3.5175779736566852,0.8797,False,371.6393352269377,,
mp-28529,KInBr3,20,K1 In1 Br3,8.604099820117206,8.604099957663742,10.87592584,90.0,90.0,119.999998600738,trig,P-3,0.0,-3.2797647855,-1.519488171283333,0.0,True,3.749623312357553,2.3376,False,697.2808897524967,,
mp-1112170,KInCl3,10,K1 In1 Cl3,7.809809136228747,7.809809136228747,7.809809136228747,60.00000000000001,60.00000000000001,60.00000000000001,cubic,Fm-3m,0.0005564,-3.610035065999999,-1.722804376783332,0.053826871466664004,False,2.566290320040948,1.597099999999999,False,336.82650816696275,,
mp-1112296,KInF3,10,K1 In1 F3,6.600529261179137,6.600529261179137,6.600529261179137,60.00000000000001,60.00000000000001,60.00000000000001,cubic,Fm-3m,0.0003782,-4.625288278,-2.700292204283333,0.075186752007941,False,3.444753015976975,2.3697,False,203.3392813139331,,
mp-1112169,KInI3,10,K1 In1 I3,8.720254371840422,8.720254371840422,8.720254371840422,59.99999999999999,59.99999999999999,59.99999999999999,cubic,Fm-3m,0.000984799999999,-2.742072924,-1.049556661783333,0.076682344999999,False,3.786689710385116,0.0,False,468.89161115328875,,
mp-974734,KInO3,5,K1 In1 O3,4.308433,4.308433,4.308433,90.0,90.0,90.0,cubic,Pm-3m,1.9997599,-5.021622034,-1.274736737783332,0.291637047333333,False,4.192360054844873,0.0,False,79.97569649952503,,
mp-639811,KIrO3,60,K1 Ir1 O3,9.48725516,9.48725516,9.48725516,90.0,90.0,90.0,cubic,Pn-3,1.22e-05,-6.472615707333333,-1.509878323783333,0.0,True,6.517792453521896,0.0,False,853.9289617818224,,
mp-1184939,KLiO3,5,K1 Li1 O3,4.048757,4.048757,4.048757,90.0,90.0,90.0,cubic,Pm-3m,4.0001613,-4.32660995,-0.749774829116666,0.49840937100000104,False,2.3528001362383453,0.0,False,66.36897884792486,,
mp-1184941,KLuO3,5,K1 Lu1 O3,4.375635,4.375635,4.375635,90.0,90.0,90.0,cubic,Pm-3m,2.0003458,-6.478484566,-2.379096527783333,0.23566239908333203,False,5.194363902990446,0.0,False,83.77670255820917,,
mp-27865,KMgCl3,20,K1 Mg1 Cl3,6.9558722,6.99846994,9.91599163,90.0,90.0,90.0,ortho,Pnma,0.0,-3.9119917455,-2.25050180195,0.0028086035000000004,False,2.335928213706615,4.4851,True,482.71505867649836,"{'voigt': 31.059, 'reuss': 31.048, 'vrh': 31.053}","{'voigt': 15.829, 'reuss': 15.583, 'vrh': 15.706}"
mp-3448,KMgF3,5,K1 Mg1 F3,3.97846823,3.97846823,3.97846823,90.0,90.0,90.0,cubic,Pm-3m,0.0,-5.2369044240000004,-3.53764909595,0.0,True,3.174844984847381,6.9536999999999995,False,62.97202846293481,"{'voigt': 74.789, 'reuss': 74.789, 'vrh': 74.789}","{'voigt': 43.572, 'reuss': 43.562, 'vrh': 43.567}"
mp-1017580,KMgH3,5,K1 Mg1 H3,4.435872,4.435872,4.435872,90.0,90.0,90.0,cubic,Pm-3m,2e-05,-1.8864750819999991,0.7029927288000001,1.048648856000001,False,1.263739335642088,0.0,False,87.28447768517216,"{'voigt': 20.908, 'reuss': 20.908, 'vrh': 20.908}","{'voigt': 0.089, 'reuss': -37.59, 'vrh': -18.751}"
mp-23737,KMgH3,5,K1 Mg1 H3,3.988098,3.988098,3.988098,90.0,90.0,90.0,cubic,Pm-3m,0.0,-2.9351239380000003,-0.34565612720000005,0.0,True,1.738989885084084,2.458,False,63.4304022052392,,
mp-1184960,KMgO3,5,K1 Mg1 O3,4.127702,4.127702,4.127702,90.0,90.0,90.0,cubic,Pm-3m,3.0,-4.960399644000001,-1.43925509345,0.36418468000000004,False,2.6303596187479252,0.0,False,70.32747214842628,,
mp-29636,KMnBr3,20,K1 Mn1 Br3,4.06261933,9.33159817,15.20534512,90.0,90.0,90.0,ortho,Pnma,19.9999993,-4.548343158500001,-1.507498234536207,0.001322062999997,False,3.845650107313347,1.7869000000000002,False,576.4457502066115,,
mp-23049,KMnCl3,20,K1 Mn1 Cl3,6.96865944,7.09603931,9.99008665,90.0,90.0,90.0,ortho,Pnma,20.0000018,-9.67291222,-1.841129159146552,0.011803122500003002,False,2.694400863748574,0.0,False,494.00859926140015,,
mp-567530,KMnCl3,20,K1 Mn1 Cl3,3.86265975,8.80346841,14.36243149,90.0,90.0,90.0,ortho,Pnma,19.9999986,-9.6847153425,-1.852932281646552,0.0,True,2.72538890417055,0.0,False,488.391654678082,,
mp-1180746,KMnF3,10,K1 Mn1 F3,5.912211119409218,5.912211119409218,5.912211119409218,120.04065156549278,120.04065156549278,89.92960383257213,tet,I4/mcm,9.9999993,-6.221487153,-3.015922769536206,0.0016044339999980001,False,3.434624555703165,1.7405,True,146.038551017863,,
mp-1180807,KMnF3,20,K1 Mn1 F3,6.011605,6.022303,8.497305,90.0,90.0,90.0,ortho,Pnma,20.0070808,-6.221887712,-3.016323328536207,0.0012038749999980002,False,3.260937950998856,3.3458,True,307.6339390337806,,
mp-1205353,KMnF3,10,K1 Mn1 F3,5.897455213755519,5.897455213755519,5.897455213755519,120.05212142299709,119.6335875130113,90.27278058248821,ortho,Imma,9.9999996,-6.223091586999999,-3.017527203536205,0.0,True,3.450245699508706,2.4058,False,145.3773548581438,,
mp-555123,KMnF3,5,K1 Mn1 F3,4.182679,4.182679,4.182679,90.0,90.0,90.0,cubic,Pm-3m,5.0000003,-6.221380176999999,-3.015815793536205,0.0017114100000000002,False,3.427308377118168,2.6564,False,73.17514769812144,,
mp-555359,KMnF3,10,K1 Mn1 F3,5.875932490693119,5.875932810204509,5.914206425265247,119.78643447947961,119.7864346172776,89.9994885613823,tet,I4/mcm,9.9999996,-6.222847012999999,-3.017282629536205,0.000244573999999,False,3.451674920857981,2.0716,True,145.31715903321,,
mp-558046,KMnF3,20,K1 Mn1 F3,5.89376972,5.92009253,8.33661285,90.0,90.0,90.0,ortho,Pnma,20.0000022,-6.222718584499999,-3.017154201036206,0.00037300249999900004,False,3.448779990624073,2.7828,True,290.87827856162966,,
mp-560382,KMnF3,20,K1 Mn1 F3,5.90810512,5.90810512,8.37649173,90.0,90.0,90.0,tet,P4/mbm,20.0000027,-6.222167010999999,-3.016602627536206,0.0009245760000000001,False,3.430980025196564,2.6774,True,292.38735855159945,,
mp-644332,KMnF3,20,K1 Mn1 F3,8.540434,6.01211,6.044953727644653,89.97188741278907,90.0,90.0,mono,P2_1/m,20.0072372,-6.221057308500001,-3.015492925036207,0.002034278499998,False,3.232041987873104,2.689199999999999,False,310.3843299606014,,
mp-1184948,KMnO3,5,K1 Mn1 O3,3.956178,3.956178,3.956178,90.0,90.0,90.0,cubic,Pm-3m,1.9945617,-6.504970762000001,-1.477517156036207,0.279935759954546,False,3.809040682836771,0.0,False,61.91950425785535,,
mp-1040469,KMoO3,5,K1 Mo1 O3,4.00482,4.00482,4.00482,90.0,90.0,90.0,cubic,Pm-3m,1.0014023,-7.406736621999999,-2.04255605245,0.10687497300000001,False,4.731924392171149,0.0,False,64.23163890078015,,
mp-1020193,KNO3,20,K1 N1 O3,5.32398474,4.497793102372509,13.715946189672014,73.72512830383205,90.0,90.0,mono,P2_1/c,0.0,-6.271692088499999,-1.408985991949999,0.013152605000001,False,2.129968348171269,2.9530000000000003,True,315.2832078512625,,
mp-1105365,KNO3,20,K1 N1 O3,4.010746043494901,5.634771,15.249042909531862,90.0,95.63855786923881,90.0,mono,P2_1/c,0.0005252,-6.238478935,-1.375772838449999,0.04636575850000001,False,1.958106914909403,3.1418,False,342.9553556651237,,
mp-1190109,KNO3,20,K1 N1 O3,9.512412,5.163495,7.166738,90.0,90.0,90.0,ortho,Pnma,0.0022719,-6.2412336905,-1.378527593949999,0.043611003,False,1.907735008956129,2.8553,True,352.01076159971836,,
mp-36903,KNO3,10,K1 N1 O3,5.456724,4.64109,7.040071938820867,75.61712108885132,90.0,90.0,mono,P2_1/m,6.290000000000001e-05,-6.2773451389999995,-1.414639042449999,0.007499554500000001,False,1.944216860136007,2.976499999999999,True,172.7027645944071,,
mp-5158,KNO3,20,K1 N1 O3,5.4109266,6.18542073,9.15028024,90.0,90.0,90.0,ortho,Pnma,0.0,-6.2848446935,-1.4221385969499991,0.0,True,2.1927984069410282,2.9384,False,306.24942598800067,"{'voigt': 17.996, 'reuss': 16.629, 'vrh': 17.312}","{'voigt': 8.606, 'reuss': 8.23, 'vrh': 8.418}"
mp-672644,KNO3,20,K1 N1 O3,5.602235,6.405085,9.268196,90.0,90.0,90.0,ortho,Pnma,0.0020087,-6.2405547975,-1.3778487009499991,0.044289896,False,2.019261481317384,3.2301,True,332.5687433976958,,
mp-675625,KNO3,10,K1 N1 O3,4.625934,5.57294317245753,7.2459686555905,89.90735697536422,73.47842733510072,89.83477280849627,tri,P1,0.0014716999999990002,-6.273080306,-1.41037420945,0.011764387500000001,False,1.874895031230523,3.0629,False,179.0882268732527,,
mp-676851,KNO3,5,K1 N1 O3,4.566025342331575,4.566025342331575,4.566025712929747,74.35728749026944,74.35728749026944,74.3572905342165,trig,R32,0.0,-6.25547028,-1.39276418345,0.0293744135,False,1.946267416819186,3.0153,False,86.26040384144711,,
mp-6920,KNO3,5,K1 N1 O3,4.2814102106257055,4.281409785183117,4.28140972804081,78.95475928192295,78.95478237933067,78.95476201552412,trig,R3m,0.0,-6.28220374,-1.41949764345,0.0026409535000000003,False,2.2499930483266573,2.9813,True,74.61614758460318,,
mp-9475,KNO3,20,K1 N1 O3,5.56306744,6.71251908,7.42782769,90.0,90.0,90.0,ortho,Pnma,0.0,-6.2837186195,-1.42101252295,0.0011260740000000001,False,2.421097681968441,3.2872,False,277.3713999375288,,
mp-973968,KNaO3,5,K1 Na1 O3,4.439773,4.439773,4.439773,90.0,90.0,90.0,cubic,Pm-3m,3.9998868,-3.959771542,-0.496376838725861,0.6109778246666681,False,2.088814888455919,0.0,False,87.51495972475456,,
mp-4342,KNbO3,5,K1 Nb1 O3,4.01297268,4.01297268,4.11029183,90.0,90.0,90.0,tet,P4mm,1e-07,-8.066249072000002,-2.85093751645,0.001190164,False,4.515683418789579,1.475999999999999,False,66.19193300770227,,
mp-5246,KNbO3,5,K1 Nb1 O3,4.00636436,4.071075481915448,4.0710768444288945,90.2036684350397,90.0,90.0,ortho,Amm2,0.0,-8.067085836,-2.851774280450001,0.00035340000000100004,False,4.501553297504891,2.0585,False,66.39970574294573,"{'voigt': 112.719, 'reuss': 94.988, 'vrh': 103.853}","{'voigt': 63.37, 'reuss': 37.355, 'vrh': 50.363}"
mp-7375,KNbO3,5,K1 Nb1 O3,4.049923854879114,4.0499238731574305,4.0499247414557855,89.83687109964886,89.83687925054527,89.83686205811088,trig,R3m,0.0,-8.067439236000002,-2.852127680450001,0.0,True,4.499799378518348,2.2934,False,66.42558683114699,,
mp-935811,KNbO3,5,K1 Nb1 O3,4.02918278,4.02918278,4.02918278,90.0,90.0,90.0,cubic,Pm-3m,0.0,-8.059709008000002,-2.844397452450001,0.007730227999999,False,4.569594296132727,1.412099999999999,False,65.41101790884895,"{'voigt': 172.61, 'reuss': 172.61, 'vrh': 172.61}","{'voigt': 113.648, 'reuss': 105.459, 'vrh': 109.553}"
mp-27366,KNiCl3,30,K1 Ni1 Cl3,11.808218955413036,11.808219368356792,5.921760560000461,89.99999448619411,90.00004025411515,119.99955083101287,hex_,P6_3cm,12.0000002,-8.760471230666667,-1.469011672916667,0.0,True,2.844454364567921,0.702299999999999,False,715.0760800661986,,
mp-560976,KNiF3,5,K1 Ni1 F3,4.00809624,4.00805847,4.00805988,90.0,90.0,90.0,cubic,Pm-3m,2.0,-5.166724965999998,-2.637536304949999,0.0,True,3.9918750249333512,0.0,False,64.38821575917798,,
mp-1185015,KNpO3,5,K1 Np1 O3,4.2700321500000005,4.29310949,4.29310845,90.0,90.0,90.0,cubic,Pm-3m,1.9999989,-8.897647024,-3.1130405402,0.0,True,6.8383050336629605,0.0,False,78.70004291254199,,
mp-1185009,KOsO3,5,K1 Os1 O3,3.931159,3.931159,3.931159,90.0,90.0,90.0,cubic,Pm-3m,0.0059018,-7.065703603999999,-1.625179570449999,0.038625092428564003,False,7.580164649281197,0.0,False,60.75217475613986,,
mp-1196581,KPO3,240,K1 P1 O3,16.0806313,16.0806313,16.0806313,90.0,90.0,90.0,cubic,Pa-3,0.021658999999999002,-6.953922860375001,-2.675777607753572,0.009890444624994001,False,2.26319293343707,5.056,True,4158.237430130767,,
mp-1223439,KPO3,10,K1 P1 O3,8.684697748613535,8.684697748613535,4.192009004959914,77.00847631493626,77.00847631493626,41.106411985066856,mono,C2/m,0.0007677,-6.717871758999999,-2.43972650637857,0.24594154599999501,False,1.943171785535104,3.3136,False,201.794081320203,,
mp-13981,KPO3,20,K1 P1 O3,4.4452682,5.81675015,12.42586076,90.0,90.0,90.0,ortho,Pnma,0.0,-6.9503199229999995,-2.672174670378569,0.013493381999997,False,2.440870589562841,4.821199999999999,True,321.2956614628418,,