mp_id,formula,sites,composition,a_edge (angstrom),b_edge (angstrom),c_edge (angstrom),alpha_ang (deg),beta_ang (deg),gamma_ang (deg),crystal_system,space_group,total_magnetisation (bohr),energy_per_atom (eV/atom),formation_energy (eV/atom),energy_above_hull (eV/atom),stable,density (g/cc),band_gap (eV),direct_bandgap,volume (cubic-angstrom),bulk_modulus (GPa),shear_modulus (GPa)
mp-5039,KPO3,40,K1 P1 O3,4.55257852,10.232011052358036,14.027151626540636,79.0634855021755,90.0,90.0,mono,P2_1/c,0.0,-6.963813304999998,-2.685668052378569,0.0,True,2.44484784723836,5.1269,True,641.5459608291362,,
mp-557880,KPO3,60,K1 P1 O3,12.183133,7.49784,12.143501837360464,65.05057427734263,90.0,90.0,mono,P2_1/c,0.0,-6.960182587666667,-2.682037335045238,0.003630717333328,False,2.339254700387278,5.243,False,1005.7576849014606,,
mp-557985,KPO3,40,K1 P1 O3,4.55149133,11.2627930361797,14.065237095257883,62.92127424687341,90.0,90.0,mono,P2_1/c,0.0,-6.963384333499998,-2.685239080878569,0.000428971499997,False,2.443185333898494,5.216,True,641.9825133506407,,
mp-675976,KPO3,10,K1 P1 O3,5.137589,6.040312003051249,6.434108476293044,64.01160023017353,81.86856944265611,83.89594705206093,tri,P-1,3.1700000000000005e-05,-5.470951085,-1.192805832378571,1.492862219999994,False,2.209724067552987,0.7652000000000001,True,177.45227608604674,,
mp-8267,KPS3,10,K1 P1 S3,6.907587079333171,7.0964710618809725,7.096471552055883,72.0738107100122,60.87663972631859,60.8766397708577,ortho,Immm,0.0,-4.749104455999995,-0.9567200658785651,0.0,True,2.0890963688192112,1.7149,False,264.3180621637443,"{'voigt': 10.617, 'reuss': 9.892, 'vrh': 10.254}","{'voigt': 5.448, 'reuss': 3.371, 'vrh': 4.41}"
mp-569702,KPSe3,120,K1 P1 Se3,14.951111301267876,14.951111301267876,19.275013,90.0,90.0,119.99999690807294,trig,P3_1,0.143696599999999,-4.206666757833333,-0.799751221618154,0.0,True,3.278374933214612,1.4182000000000001,True,3731.404010154259,,
mp-571452,KPSe3,30,K1 P1 Se3,7.30874671,7.308746906117646,18.97090961,90.0,90.0,120.00000769084687,trig,P3_121,0.0,-4.204703159999999,-0.79778762378482,0.0019635978333330003,False,3.484707385856786,1.315,False,877.6161107698349,,
mp-1206970,KPaO3,5,K1 Pa1 O3,4.35600548,4.35600548,4.35600548,90.0,90.0,90.0,cubic,Pm-3m,0.0,-8.656407697999999,-3.552497714449997,0.0,True,6.391337032195198,3.0477,False,82.6542619610523,,
mp-1211504,KPbI3,20,K1 Pb1 I3,4.75272664,10.60788672,17.07067393,90.0,90.0,90.0,ortho,Pnma,0.0,-3.090048539499997,-1.206837611949997,0.014278023500001001,False,4.839075124545369,2.4115,False,860.6416828616508,,
mp-1184935,KPbO3,5,K1 Pb1 O3,4.360784,4.360784,4.360784,90.0,90.0,90.0,cubic,Pm-3m,1.0255598,-5.137626526,-1.2000465644499991,0.15114649699999802,False,5.893054640887403,0.0,False,82.92657461938236,,
mp-9061,KPdF3,5,K1 Pd1 F3,4.309255999999999,4.309255999999999,4.309255999999999,90.0,90.0,90.0,cubic,Pm-3m,0.0026034,-4.51968138,-2.11054369295,0.034555293999989,False,4.20238862870112,0.0,False,80.02153630160868,"{'voigt': 68.848, 'reuss': 68.848, 'vrh': 68.848}","{'voigt': 22.29, 'reuss': 17.185, 'vrh': 19.737}"
mp-972985,KPdO3,5,K1 Pd1 O3,4.070076,4.070076,4.070076,90.0,90.0,90.0,cubic,Pm-3m,2.0084574,-5.05649011,-0.8254632004499991,0.166205129333328,False,4.766060397742008,0.0,False,67.42291986772541,,
mp-974842,KPtO3,5,K1 Pt1 O3,4.046411,4.046411,4.046411,90.0,90.0,90.0,cubic,Pm-3m,1.7118185000000001,-5.359969388,-0.950692176449999,0.12546218016666602,False,7.072388646410466,0.0,False,66.25367573946053,"{'voigt': 119.312, 'reuss': 119.312, 'vrh': 119.312}","{'voigt': 51.665, 'reuss': 50.543, 'vrh': 51.104}"
mp-863708,KPuO3,5,K1 Pu1 O3,4.24710281,4.24713127,4.24712415,90.0,90.0,90.0,cubic,Pm-3m,3.0000012,-9.064600619999998,-2.921963576199996,1.739399999678426e-05,False,7.17662531328815,0.0,False,76.6096388014749,,
mp-1184957,KRbO3,5,K1 Rb1 O3,5.002601,5.002601,5.002601,90.0,90.0,90.0,cubic,Pm-3m,4.0000005,-3.7222270120000003,-0.33106964994999905,0.766270069,False,2.288824295563234,0.0,False,125.1951764956113,,
mp-973471,KReO3,5,K1 Re1 O3,3.939058,3.939058,3.939058,90.0,90.0,90.0,cubic,Pm-3m,0.0003283,-7.766516009999999,-2.08184262095,0.03743742071428,False,7.425354016710841,0.0,False,61.11912479420659,"{'voigt': 201.94, 'reuss': 201.94, 'vrh': 201.94}","{'voigt': 124.607, 'reuss': 114.309, 'vrh': 119.458}"
mp-975134,KRhO3,5,K1 Rh1 O3,3.991577,3.991577,3.991577,90.0,90.0,90.0,cubic,Pm-3m,2.3977427000000002,-5.8521444559999996,-1.184232334449999,0.061124044,False,4.961051500094684,0.0,False,63.59654676556202,,
mp-973958,KRuO3,5,K1 Ru1 O3,3.939276999999999,3.939276999999999,3.939276999999999,90.0,90.0,90.0,cubic,Pm-3m,0.0156177,-6.582909454,-1.5329783984499992,0.10410775574999101,False,5.111423239827205,0.0,False,61.12931948987885,,
mp-541581,KSO3,30,K1 S1 O3,9.7119876678913,9.711994322923784,6.275905170219501,90.00029059967758,89.99906660289611,120.00083458964312,trig,P321,0.0,-6.096352299666666,-2.073629838616666,0.012870133793858,False,2.315881936093708,4.9772,False,512.648739732601,,
mp-558546,KSO3,30,K1 S1 O3,9.872281134340911,9.872482007113183,6.298872380025205,90.00021630551426,90.00008616968702,120.00109804319598,trig,P321,0.0,-6.098420835000001,-2.07569837395,0.010801598460523,False,2.233077565667677,4.995,True,531.65818069242,,
mp-1180714,KSbO3,10,K1 Sb1 O3,3.745254,6.093515106222762,8.342319224470495,88.15577793281109,98.90750501990259,103.29677731035616,tri,P-1,0.2772321,-5.254579815,-1.23372901945,0.815398153999997,False,3.789352822327881,0.0,False,183.04675960486958,,
mp-14607,KSbO3,60,K1 Sb1 O3,9.59970638,9.59970638,9.59970638,90.0,90.0,90.0,cubic,Pn-3,2.65e-05,-6.051586918333333,-2.030736122783333,0.018391050666664,False,4.704402694997494,2.0039,True,884.6548224253007,,
mp-16293,KSbO3,20,K1 Sb1 O3,7.515630087838145,7.515630087838145,7.515630087838145,60.00000000000001,60.00000000000001,60.00000000000001,cubic,Fd-3m,0.0024101,-6.025254998999999,-2.004404203449999,0.044722969999998,False,4.621424829037074,1.121299999999999,False,300.17961160744926,"{'voigt': 112.518, 'reuss': 112.518, 'vrh': 112.518}","{'voigt': 74.561, 'reuss': 71.508, 'vrh': 73.035}"
mp-547792,KSbO3,10,K1 Sb1 O3,6.8402809498955195,6.840261048652843,6.840306935576334,46.47726357166372,46.47717130956079,46.47728063486247,trig,R-3,0.0,-6.069977968999998,-2.049127173449997,0.0,True,4.514453166273659,2.6808,False,153.64624010469555,,
mp-635067,KSbO3,10,K1 Sb1 O3,3.8473990000000002,5.9050698819408565,7.408662200085519,79.85517067679098,82.26845813041551,78.24766876123343,tri,P-1,0.0014092,-5.157419805,-1.136569009449999,0.9125581639999981,False,4.298599163007658,0.0,False,161.36158055764503,,
mp-695836,KSbO3,10,K1 Sb1 O3,4.990369,6.2337885709735135,6.825866397322614,72.28576422474188,69.06421636420951,67.33299992432232,tri,P-1,0.0003278,-5.305372768,-1.284521972449999,0.7646052009999981,False,3.86299281493033,0.27840000000000004,False,179.55735057177304,,
mp-973960,KScO3,5,K1 Sc1 O3,4.210657,4.210657,4.210657,90.0,90.0,90.0,cubic,Pm-3m,2.0000204,-6.798047294,-2.33650292545,0.203321557249999,False,2.937283325962221,0.0,False,74.65340065311048,,
mp-28695,KSiH3,20,K1 Si1 H3,5.30126752,6.87685656,8.77103648,90.0,90.0,90.0,ortho,Pnma,0.0,-5.219501882,-0.188028735,0.0,True,1.458386837216834,2.5733,False,319.757399910416,,
mp-1198795,KSiO3,40,K1 Si1 O3,7.761756279060623,7.761756279060623,11.261609,90.0,90.0,98.93432999410318,ortho,Cmce,7.9986056,-6.740625377000001,-2.46051122345,0.150114179499995,False,2.282994041463066,0.21320000000000003,False,670.2223739368103,,
mp-1199261,KSiO3,40,K1 Si1 O3,11.007972,7.83872,10.36872264958746,48.63116328362802,90.0,90.0,mono,P2_1/c,7.9978894,-6.74282323075,-2.462709077199999,0.14791632574999602,False,2.278831758782785,0.0,False,671.4465340654475,,
mp-974061,KSiO3,5,K1 Si1 O3,3.683079,3.683079,3.683079,90.0,90.0,90.0,cubic,Pm-3m,0.36501089999999903,-6.420598784000001,-2.14048463045,0.47014077249999503,False,3.82825280800173,0.0,False,49.96122783985031,"{'voigt': 178.452, 'reuss': 178.452, 'vrh': 178.452}","{'voigt': 121.72, 'reuss': 113.99, 'vrh': 117.855}"
mp-1097014,KSnBr3,20,K1 Sn1 Br3,4.476666189999999,8.95656243,16.58642631,90.0,90.0,90.0,ortho,Pnma,0.0,-3.509366654499999,-1.4990104179499981,0.012274417499998,False,3.970265113008643,2.2679,False,665.0417230363074,,
mp-28774,KSnF3,40,K1 Sn1 F3,7.978592781479855,9.891077845454802,10.219516817366356,80.38084710235466,72.36743442157994,74.20170478550027,tri,P-1,0.0,-4.966241507750003,-2.791165811700002,0.0,True,3.874886942943743,3.5114,False,736.4129577677159,,
mp-1097015,KSnI3,20,K1 Sn1 I3,4.70824602,10.44878157,16.99764006,90.0,90.0,90.0,ortho,Pnma,0.0,-3.066696506500002,-1.124100621950002,0.0,True,4.277587265101873,1.9381,False,836.2062838205491,,
mp-1079672,KSnN3,10,K1 Sn1 N3,6.781988089927024,6.781988089927024,7.8312919999999995,90.0,90.0,120.00000087725367,trig,P-3,11.9982193,-4.331909158,1.699245804549999,1.824210540666666,False,2.127444373118929,0.0,False,311.94504449458685,,
mp-1205548,KSrI3,10,K1 Sr1 I3,8.112890009007195,8.112890009007195,12.05344229,90.0,90.0,145.97529593647513,ortho,Cmcm,0.0,-3.326722780000003,-1.847555648450002,0.0,True,3.796254243576846,3.9993,False,443.91662097569684,,
mp-1184959,KSrO3,5,K1 Sr1 O3,4.84673,4.84673,4.84673,90.0,90.0,90.0,cubic,Pm-3m,3.0,-4.863301408,-1.3297652424500002,0.506905778999999,False,2.548217758597212,0.0,False,113.85352482172922,,
mp-3614,KTaO3,5,K1 Ta1 O3,3.99488137,3.99488137,3.99488137,90.0,90.0,90.0,cubic,Pm-3m,0.0,-8.640023914000002,-3.071587857916669,0.0,True,6.981426041917768,2.0995,False,63.7546200303669,"{'voigt': 188.716, 'reuss': 188.716, 'vrh': 188.716}","{'voigt': 126.959, 'reuss': 118.031, 'vrh': 122.495}"
mp-568318,KTaTe3,100,K1 Ta1 Te3,14.268809,7.986365,31.328616139579005,89.92458311176226,90.0,90.0,mono,P2_1/c,0.005050000000000001,-5.3048983437000015,-0.8192553546166661,0.0,True,5.607998538235741,0.492199999999999,True,3570.0780812097096,,
mp-981313,KTbO3,5,K1 Tb1 O3,4.494844,4.494844,4.494844,90.0,90.0,90.0,cubic,Pm-3m,1.999593,-6.3955497040000004,-2.272926431783332,0.269213928375,False,4.498615826795687,0.0,False,90.81213175146713,"{'voigt': 54.299, 'reuss': 54.299, 'vrh': 54.299}","{'voigt': 16.797, 'reuss': -11.855, 'vrh': 2.471}"
mp-28408,KTcCl3,20,K1 Tc1 Cl3,8.329953578328814,8.329953578328814,9.060211253506676,86.36834409133283,86.36834409133283,118.29012382847229,mono,Cc,0.0017182,-11.447187764,-1.359139228249999,0.050484928999999006,False,2.943660548503777,1.697099999999999,False,549.3437181871276,,
mp-973267,KTcO3,5,K1 Tc1 O3,3.8741419500000003,3.8741419500000003,3.8741419500000003,90.0,90.0,90.0,cubic,Pm-3m,2.1e-06,-7.249670993999999,-1.982492657449999,0.0,True,5.285921582802932,0.0,False,58.14690296217846,"{'voigt': 180.938, 'reuss': 180.938, 'vrh': 180.938}","{'voigt': 113.566, 'reuss': 109.302, 'vrh': 111.434}"
mp-1184940,KTeO3,5,K1 Te1 O3,4.114391,4.114391,4.114391,90.0,90.0,90.0,cubic,Pm-3m,0.0001793,-5.462513868,-1.6388021417833332,0.08427374347221901,False,5.11867290592566,0.0,False,69.64928845122509,,
mp-567718,KTiBr3,30,K1 Ti1 Br3,13.399815946274225,13.399815946274225,5.928911,90.0,90.0,119.9999997347375,hex_,P6_3,6.8195294,-4.4520400953333334,-1.6644998264500002,0.023100072583331,False,3.530336274008029,0.0,False,921.9412147481581,,
mp-568270,KTiCl3,30,K1 Ti1 Cl3,12.631256365718533,12.631256365718533,5.633525,90.0,90.0,120.00000191554528,hex_,P6_3,6.5345734,-4.922709479999999,-2.008215136116666,0.011912575666668,False,2.4744737183150383,0.0,False,778.4020100040376,,
mp-640578,KTiI3,30,K1 Ti1 I3,14.058079646285833,14.058079646285833,6.965316,90.0,90.0,119.99999833536715,hex_,P6_3,11.9978573,-3.917784469,-1.1980045521166671,0.050800693444444,False,3.9086293232697282,0.0,False,1192.1295743477185,,
mp-1180658,KTiO3,20,K1 Ti1 O3,5.798654284267428,5.798654284267428,9.652997,90.0,90.0,120.00000324333553,hex_,P6_3/mmc,3.982785599999999,-7.4266896085,-2.652540657616666,0.09936709999999901,False,3.189173880633049,0.0,False,281.0911824858956,,
mp-760376,KTiO3,5,K1 Ti1 O3,3.69172,3.69172,5.766897,90.0,90.0,90.0,tet,P4mm,1.0034982,-7.436609148,-2.662460197116666,0.08944756050000001,False,2.851449774143137,0.0,False,78.59586598624729,,
mp-1111155,KTlBr3,10,K1 Tl1 Br3,8.305649381759503,8.305649381759503,8.305649381759503,60.00000000000001,60.00000000000001,60.00000000000001,cubic,Fm-3m,0.0002096,-3.024775913,-1.342039624116668,0.07723567325000101,False,3.960905520400015,0.9246000000000001,False,405.140615144015,,
mp-1111296,KTlCl3,10,K1 Tl1 Cl3,7.932070727123025,7.932070727123025,7.932070727123025,60.00000000000001,60.00000000000001,60.00000000000001,cubic,Fm-3m,0.00040409999999900005,-3.391741491,-1.5820511271166682,0.059074320500000006,False,3.292339148991479,1.097,False,352.89437515010235,,
mp-1111295,KTlF3,10,K1 Tl1 F3,6.776574808064027,6.776574808064027,6.776574808064027,60.00000000000001,60.00000000000001,60.00000000000001,cubic,Fm-3m,0.00022349999999900002,-4.287616186999999,-2.440160438616668,0.05428418670833501,False,4.534969175152891,1.9647000000000001,False,220.04713226360937,,
mp-1110822,KTlI3,10,K1 Tl1 I3,8.872874885278165,8.872874885278165,8.872874885278165,60.00000000000001,60.00000000000001,60.00000000000001,cubic,Fm-3m,0.0211598,-2.588186391,-0.9732104541166681,0.11789555600000001,False,4.196829350092661,0.0,False,493.94441032437635,,
mp-984454,KTlO3,5,K1 Tl1 O3,4.410647,4.410647,4.410647,90.0,90.0,90.0,cubic,Pm-3m,1.8942135,-4.464268248,-0.7949232771166671,0.333117668999999,False,5.64092930918647,0.0,False,85.80387530056791,,
mp-1211295,KTmBr3,20,K1 Tm1 Br3,7.603023,7.98206,10.939478,90.0,90.0,90.0,ortho,Pnma,3.9124485,-3.9232285090000003,-1.818286347450001,0.17825768566666603,False,4.4796230099649215,0.0,False,663.8926972709666,,
mp-570303,KTmI3,10,K1 Tm1 I3,8.11373545960213,8.11373545960213,11.538987,90.0,90.0,149.3795755481968,ortho,Cmcm,0.855784299999999,-3.440558614999999,-1.403376805450001,0.12858335099999801,False,5.053390305992179,0.0,False,386.92265638064936,"{'voigt': 18.38, 'reuss': 17.347, 'vrh': 17.864}","{'voigt': 8.938, 'reuss': 6.958, 'vrh': 7.948}"
mp-1184949,KTmO3,5,K1 Tm1 O3,4.412421,4.412421,4.412421,90.0,90.0,90.0,cubic,Pm-3m,2.0086639,-6.441807396,-2.350256552450001,0.247455240833333,False,4.94891881514753,0.0,False,85.9074501087085,,
mp-4126,KUO3,5,K1 U1 O3,4.2988627600000004,4.2988627600000004,4.2988627600000004,90.0,90.0,90.0,cubic,Pm-3m,1.0,-8.78844244,-3.335109890449998,0.0,True,6.7957793352570075,0.4454,False,79.44393397949031,"{'voigt': 134.466, 'reuss': 134.466, 'vrh': 134.466}","{'voigt': 72.59, 'reuss': 62.786, 'vrh': 67.688}"
mp-1205604,KVCl3,10,K1 V1 Cl3,6.9149561270519015,6.914956433656114,6.16009058,90.0,90.0,119.99942116334017,hex_,P6_3/mmc,6.0000003,-9.548923211,-1.83589193925,0.0,True,2.556929670653495,0.33420000000000005,False,255.09335182458014,,
mp-557257,KVF3,5,K1 V1 F3,4.12938738,4.12940323,4.1292904,90.0,90.0,90.0,cubic,Pm-3m,2.9999995,-6.230437906000001,-3.04049536695,0.0,True,3.467540209722954,2.075899999999999,False,70.41227003340603,,
mp-1076633,KVO3,5,K1 V1 O3,3.8531,3.8531,3.8531,90.0,90.0,90.0,cubic,Pm-3m,8.550000000000003e-05,-7.201591718,-2.18975995645,0.21691129050000002,False,4.006977597551768,0.21860000000000002,False,57.204585275290995,,
mp-18815,KVO3,20,K1 V1 O3,5.1974608,5.65515664,10.65824401,90.0,90.0,90.0,ortho,Pbcm,0.0,-7.418503008500001,-2.406671246950001,0.0,True,2.9267540433941823,3.046,False,313.27195695543344,,
mp-1040472,KWO3,5,K1 W1 O3,4.017149,4.017149,4.017149,90.0,90.0,90.0,cubic,Pm-3m,0.9996199,-7.920365188000001,-2.13368859445,0.067683724833328,False,6.940053084185971,0.0,False,64.82668610173054,,
mp-1184945,KYO3,5,K1 Y1 O3,4.497543,4.497543,4.497543,90.0,90.0,90.0,cubic,Pm-3m,1.998478,-6.75570838,-2.258839532449999,0.271296047916666,False,3.212488571796565,0.0,False,90.97581873262898,,
mp-5878,KZnF3,5,K1 Zn1 F3,4.04741679,4.04741679,4.04741679,90.0,90.0,90.0,cubic,Pm-3m,0.0,-4.438915822,-2.81380577495,0.0,True,4.044777029368843,3.6954000000000002,False,66.30309275332023,"{'voigt': 71.15, 'reuss': 71.15, 'vrh': 71.15}","{'voigt': 33.358, 'reuss': 33.213, 'vrh': 33.286}"
mp-1184946,KZnO3,5,K1 Zn1 O3,4.088547,4.088547,4.088547,90.0,90.0,90.0,cubic,Pm-3m,2.9948736,-4.385129023999999,-0.938129754449999,0.366345996000001,False,3.7053362075224703,0.0,False,68.34503711356686,,
mp-1184950,KZrO3,5,K1 Zr1 O3,4.238285,4.238285,4.238285,90.0,90.0,90.0,cubic,Pm-3m,0.99994,-7.699603071999999,-2.795012398449999,0.066313654833331,False,3.889375724926838,0.0,False,76.13256665533781,,
mp-10600,La3AlC,5,La3 Al1 C1,5.205131,5.205131,5.205131,90.0,90.0,90.0,cubic,Pm-3m,0.0001904,-5.741741924,-0.185289396500001,0.034530171499999006,False,5.365885189191126,0.0,False,141.02463755879623,"{'voigt': 58.829, 'reuss': 58.829, 'vrh': 58.829}","{'voigt': 34.532, 'reuss': 34.416, 'vrh': 34.474}"
mp-4505,La3AlN,5,La3 Al1 N1,5.09751599,5.09752329,5.09751495,90.0,90.0,90.0,cubic,Pm-3m,0.0349912,-21.920097419999998,-0.9010594967499971,0.0,True,5.737967672904658,0.0,False,132.4574297540407,"{'voigt': 66.117, 'reuss': 66.117, 'vrh': 66.117}","{'voigt': 43.905, 'reuss': 43.169, 'vrh': 43.537}"
mp-1206996,La3AlO,5,La3 Al1 O1,5.03101297,5.03100776,5.0310088,90.0,90.0,90.0,cubic,Pm-3m,4.78e-05,-6.174222742,-1.473911112000002,0.0,True,5.994536311154249,0.0,False,127.34019222510247,,
mp-20590,La3InB,5,La3 In1 B1,5.328949,5.328949,5.328949,90.0,90.0,90.0,cubic,Pm-3m,0.0146699,-24.089932955874996,-0.258075917374992,0.20274191400000002,False,5.951142844799229,0.0,False,151.32988139970902,,
mp-29056,La3InC,5,La3 In1 C1,5.24935926,5.24935926,5.24935926,90.0,90.0,90.0,cubic,Pm-3m,4.299999999999999e-06,-5.677746706000002,-0.318574595833336,0.0,True,6.239730051336122,0.0,False,144.650150277114,,
mp-1224015,La3InGe,40,La3 In1 Ge1,12.38399439375116,11.958467310218978,11.942750840686147,62.40709727007203,58.85955349030057,58.73628553515357,ortho,Fmm2,6.9071333,-25.88049740575,-0.743515690749995,0.0,True,6.434968402143706,0.0,False,1247.2542497778695,,
mp-20999,La3InN,5,La3 In1 N1,5.13785256,5.13783273,5.13784525,90.0,90.0,90.0,cubic,Pm-3m,0.0013100000000000002,-25.246911439999998,-1.058575106749995,0.0,True,6.679346334005235,0.0,False,135.62589515374242,,
mp-10611,La3PbC,5,La3 Pb1 C1,5.23916418,5.23915898,5.2391808300000005,90.0,90.0,90.0,cubic,Pm-3m,0.1915083,-5.978348818000001,-0.42848204250000105,0.0,True,7.342931273989079,0.0,False,143.80930043641396,"{'voigt': 60.77, 'reuss': 60.77, 'vrh': 60.77}","{'voigt': 40.25, 'reuss': 39.298, 'vrh': 39.774}"
mp-1206443,La3SnC,5,La3 Sn1 C1,5.22029957,5.22029957,5.22029957,90.0,90.0,90.0,cubic,Pm-3m,0.0492238,-6.099530595999999,-0.49027886350000005,0.0,True,6.389944025641342,0.0,False,142.26113781495349,,
mp-1206994,La3SnN,5,La3 Sn1 N1,5.10650318,5.1065146200000004,5.10650942,90.0,90.0,90.0,cubic,Pm-3m,9.3e-06,-25.794369957999997,-1.172514944749997,0.0,True,6.851593696206372,0.0,False,133.15955149875467,,
mp-571167,NdNiSb3,60,Nd1 Ni1 Sb3,6.2375653,12.72674041,18.34531071,90.0,90.0,90.0,ortho,Pbcm,1.4e-06,-5.320691463499994,-0.733633896999992,0.0,True,7.774741903858331,0.0,False,1456.321840562447,,
mp-1186312,NdNpO3,5,Nd1 Np1 O3,4.495194,4.495194,4.495194,90.0,90.0,90.0,cubic,Pm-3m,3.978307,-8.986175597999999,-2.474213572249999,1.037101979312499,False,7.847009308489407,0.0,False,90.83334720707875,,
mp-1186326,NdReO3,5,Nd1 Re1 O3,4.000753,4.000753,4.000753,90.0,90.0,90.0,cubic,Pm-3m,0.996350299999999,-8.621295616000001,-2.2092666850000002,0.6074133945000051,False,9.813618594340609,0.0,False,64.03615080453494,,
mp-16287,NdRh3C,5,Nd1 Rh3 C1,4.20689872,4.20689872,4.20689872,90.0,90.0,90.0,cubic,Pm-3m,1.0600000000000002e-05,-7.604045076000003,-0.38609776900000203,0.016713651833329003,False,10.370199548630055,0.0,False,74.45368025418045,,
mp-4582,NdRhO3,20,Nd1 Rh1 O3,5.36174282,5.83175504,7.7935672,90.0,90.0,90.0,ortho,Pnma,0.0,-7.8904300875,-2.495162424,0.0,True,8.044591808528452,0.6487,False,243.69214839187953,,