mp_id,formula,sites,composition,a_edge (angstrom),b_edge (angstrom),c_edge (angstrom),alpha_ang (deg),beta_ang (deg),gamma_ang (deg),crystal_system,space_group,total_magnetisation (bohr),energy_per_atom (eV/atom),formation_energy (eV/atom),energy_above_hull (eV/atom),stable,density (g/cc),band_gap (eV),direct_bandgap,volume (cubic-angstrom),bulk_modulus (GPa),shear_modulus (GPa)
mp-10113,ScBIr3,5,Sc1 B1 Ir3,4.12710079,4.12710079,4.12710079,90.0,90.0,90.0,cubic,Pm-3m,3.94e-05,-8.564768664000002,-0.659335980833334,0.0,True,14.93887983976788,0.0,False,70.29674651362069,"{'voigt': 242.814, 'reuss': 242.814, 'vrh': 242.814}","{'voigt': 127.33, 'reuss': 116.318, 'vrh': 121.824}"
mp-8697,ScBO3,10,Sc1 B1 O3,5.799975270815913,5.799975080611637,5.7999769046992675,48.58945306251447,48.58945177955736,48.58945247609858,trig,R-3c,0.0,-9.008089935,-3.436941156833332,0.0,True,3.423054231058334,4.118,True,100.67384890531,,
mp-1017631,ScBPd3,5,Sc1 B1 Pd3,4.234957,4.234957,4.234957,90.0,90.0,90.0,cubic,Pm-3m,4.64e-05,-18.08364942985715,-0.55840895335715,0.156873191142853,False,8.199068527313317,0.0,False,75.95336425446645,"{'voigt': 153.391, 'reuss': 153.391, 'vrh': 153.391}","{'voigt': 33.263, 'reuss': 8.412, 'vrh': 20.837}"
mp-1018627,ScBPt3,5,Sc1 B1 Pt3,4.262156,4.262156,4.262156,90.0,90.0,90.0,cubic,Pm-3m,5.3200000000000006e-05,-6.881144814,-0.636092646833331,0.195880530166668,False,13.747759183123577,0.0,False,77.4262140925559,"{'voigt': 187.164, 'reuss': 187.164, 'vrh': 187.164}","{'voigt': 24.834, 'reuss': -23.398, 'vrh': 0.718}"
mp-569875,ScBRh3,5,Sc1 B1 Rh3,4.09667077,4.09667077,4.09667077,90.0,90.0,90.0,cubic,Pm-3m,0.0250306,-7.7743432240000026,-0.7533863268333341,0.0,True,8.803060282938153,0.0,False,68.75324322460001,"{'voigt': 195.322, 'reuss': 195.322, 'vrh': 195.322}","{'voigt': 100.995, 'reuss': 91.57, 'vrh': 96.283}"
mp-1101383,ScBiO3,10,Sc1 Bi1 O3,6.014840322595854,6.014840322595854,6.014840772355325,56.62642016633212,56.62642016633212,56.62642390392444,trig,R-3,0.0002792,-7.744921897999999,-2.731644612,0.073585315875001,False,7.067566893334792,2.1479,True,141.88024260616115,,
mp-550008,ScBiO3,5,Sc1 Bi1 O3,4.075793,4.075793,4.075793,90.0,90.0,90.0,cubic,Pm-3m,0.000359899999999,-7.461491168,-2.448213882000001,0.357016045874999,False,7.405007405474687,0.6896999999999991,False,67.7074343450527,"{'voigt': 148.262, 'reuss': 148.262, 'vrh': 148.262}","{'voigt': 76.103, 'reuss': 67.676, 'vrh': 71.889}"
mp-555313,ScBiO3,20,Sc1 Bi1 O3,5.7957128321687055,5.7957128321687055,10.149541451715935,73.78835562970222,73.78835562970222,61.127429511184666,mono,Cc,4.999999999999999e-06,-7.784773459999999,-2.771496174,0.033733753875001,False,7.101137173256954,2.6897,False,282.41902134716827,,
mp-555769,ScBiO3,20,Sc1 Bi1 O3,5.795522631082118,5.795522631082118,10.14259117505236,73.79084706840781,73.79084706840781,61.123083085120214,mono,C2/c,5e-07,-7.7840247885,-2.7707475025,0.034482425375,False,7.106623445574228,2.6784,False,282.20099549135153,,
mp-754009,ScBiO3,10,Sc1 Bi1 O3,5.918435860776477,5.918435860776477,5.918435646988907,58.492937849349076,58.492937849349076,58.49293268922221,trig,R3c,6.570000000000001e-05,-7.797074836999999,-2.783797551,0.021432376875001,False,7.08472976865481,3.0834,False,141.5365353662609,,
mp-756205,ScBiO3,20,Sc1 Bi1 O3,5.600617,5.909651,8.104093,90.0,90.0,90.0,ortho,Pnma,1.3000000000000001e-05,-7.7863500525,-2.7730727665000012,0.032157161375,False,7.47686813446329,2.9082,False,268.2267728755639,,
mp-10270,ScCo3C,5,Sc1 Co3 C1,3.78085852,3.7809781300000003,3.7809781300000003,90.0,90.0,90.0,cubic,Pm-3m,4.9000000000000005e-06,-7.671762876,-0.27948592450000104,0.0,True,7.181779254269006,0.0,False,54.05038066831004,"{'voigt': 208.929, 'reuss': 208.929, 'vrh': 208.929}","{'voigt': 98.932, 'reuss': 93.425, 'vrh': 96.179}"
mp-1186980,ScCoO3,5,Sc1 Co1 O3,3.661868,3.661868,3.661868,90.0,90.0,90.0,cubic,Pm-3m,0.0005578,-7.7020651319999995,-2.040111364,0.559231103089286,False,5.136443602936916,0.785999999999999,False,49.10300326279377,,
mp-1643785,ScCoO3,20,Sc1 Co1 O3,5.011454321223327,5.44605869244518,7.419552879869144,90.002227412838,88.92155957554021,89.9974596055614,mono,P2_1/c,3.9999997,-8.1920974155,-2.530143647499999,0.069198819589287,False,4.982917296599512,0.8961999999999991,False,202.46357062059715,,
mp-754124,ScCoO3,20,Sc1 Co1 O3,5.011564053561423,5.409577001871218,7.655569811051101,90.00165401674067,89.73397158093768,89.99754113106276,ortho,Pnma,4.1e-06,-8.191829626499999,-2.529875858499999,0.06946660858928701,False,4.8609498323286084,0.0,False,207.5436412174167,,
mp-18961,ScCrO3,20,Sc1 Cr1 O3,5.0888840000001965,5.407961000000185,7.5539680000003315,89.99998182042835,90.00002642872559,90.00002185371906,ortho,Pnma,5e-07,-9.296693205,-3.130813287000001,0.036846917874999004,False,4.6312337405873905,2.417799999999999,False,207.8888721409463,,
mp-973068,ScCuO3,5,Sc1 Cu1 O3,3.7288930000000002,3.7288930000000002,3.7288930000000002,90.0,90.0,90.0,cubic,Pm-3m,0.0347615,-6.892613322,-1.837501564,0.572803505499999,False,5.012149143668761,0.0,False,51.848925970517726,"{'voigt': 186.205, 'reuss': 186.205, 'vrh': 186.205}","{'voigt': 76.628, 'reuss': 59.959, 'vrh': 68.294}"
mp-754342,ScFeO3,10,Sc1 Fe1 O3,3.369388343633307,3.369388343633307,11.944255,90.0,90.0,120.00000674739563,hex_,P6_3/mmc,10.0,-8.694239036,-2.76496437,0.072947626874997,False,4.208115250017525,0.0,False,117.43344650570573,,
mp-756419,ScFeO3,20,Sc1 Fe1 O3,5.023174482455591,5.397466407056741,7.427368276864492,90.10703547031295,89.65309210942323,90.02223936197204,mono,P2_1/c,19.9996066,-8.629074974,-2.699800307999999,0.138111688874998,False,4.908118132097733,1.2694,True,201.36983821600379,,
mp-769734,ScFeO3,20,Sc1 Fe1 O3,5.102012,5.42055,7.673745,90.0,90.0,90.0,ortho,Pnma,19.9990706,-8.6832404825,-2.7539658165,0.083946180374997,False,4.657117917131759,1.7076,True,212.22287513266605,,
mp-771123,ScFeO3,30,Sc1 Fe1 O3,5.847179635836066,5.847179635836066,11.581486,90.0,90.0,119.99999587957038,hex_,P6_3cm,29.9977918,-8.708788777333332,-2.779514111333333,0.05839788554166601,False,4.323275167408495,0.9222999999999991,False,342.91604718674466,,
mp-754165,ScGaO3,10,Sc1 Ga1 O3,3.2966854461348976,3.296686018788607,11.765131340000046,90.00001006469935,89.99999448356002,119.99997757270602,hex_,P6_3/mmc,0.0,-7.9421429360000015,-3.101253307500001,0.017611347374997,False,4.878911497780485,2.6997,False,110.7344127232281,,
mp-754239,ScGaO3,20,Sc1 Ga1 O3,5.064654,5.383967,7.58976,90.0,90.0,90.0,ortho,Pnma,8.8e-06,-7.8832921735,-3.042402545,0.076462109874998,False,5.221019665815953,4.3308,False,206.95704441515204,,
mp-769079,ScGaO3,30,Sc1 Ga1 O3,5.734680531028742,5.734676261226665,11.53189412000198,90.00004383659663,89.99993243552586,119.99997088275681,hex_,P6_3cm,0.0,-7.955223722666668,-3.114334094166667,0.00453056070833,False,4.934887554450265,3.1715,False,328.43508193907246,,
mp-768358,ScInO3,10,Sc1 In1 O3,3.4664004679322615,3.4664004679322615,12.748711,90.0,90.0,120.00000893092093,hex_,P6_3/mmc,5.4e-06,-7.694859255,-2.907754082333332,0.073645931874999,False,5.201301265856924,2.1982,True,132.6643819656345,,
mp-624739,ScIr3C,5,Sc1 Ir3 C1,4.685136,4.685136,4.685136,90.0,90.0,90.0,cubic,Pm-3m,0.024578799999999002,-5.496298736,2.9189886915,3.415863378499999,False,10.230803221384196,0.0,False,102.84107466876378,,
mp-1105811,ScMnO3,20,Sc1 Mn1 O3,5.116733912413465,5.422535000105578,7.904384291744298,89.99940596007741,94.15850618009742,90.00043304633327,mono,P2_1/c,15.9997915,-9.009025804,-2.941352321586206,0.049973920562498005,False,4.49092583781479,1.7979999999999992,False,218.73503434359637,,
mp-18954,ScMnO3,30,Sc1 Mn1 O3,5.857486453227326,5.85748598868372,11.182257550000015,89.99999734312742,89.99999649905703,120.00033004623072,hex_,P6_3cm,23.9999995,-9.051214285666667,-2.983540803252874,0.007785438895831001,False,4.434700161343278,0.0,False,332.2624241651375,,
mp-1246879,ScMoN3,20,Sc1 Mo1 N3,9.280475840435393,5.716124630514628,7.820686179765686,106.05085367650803,102.89809038063306,119.83916455987978,tri,P-1,0.001413199999999,-9.3758617735,-0.9372712835000011,0.122036312299998,False,3.896915427096869,1.2502,False,311.7739550831921,,
mp-1018635,ScPd3C,5,Sc1 Pd3 C1,4.21238,4.21238,4.21238,90.0,90.0,90.0,cubic,Pm-3m,0.0001294,-6.405410242,-0.185254236499999,0.49921270849999905,False,8.358262044109336,0.0,False,74.74508262885325,"{'voigt': 166.014, 'reuss': 166.014, 'vrh': 166.014}","{'voigt': 37.196, 'reuss': 17.862, 'vrh': 27.529}"
mp-973123,ScPdO3,5,Sc1 Pd1 O3,4.078754,4.078754,4.078754,90.0,90.0,90.0,cubic,Pm-3m,2.9942532,-6.811770677999999,-1.5405238919999982,0.820065729874999,False,4.879050636926505,0.0,False,67.8551067576614,"{'voigt': 118.718, 'reuss': 118.718, 'vrh': 118.718}","{'voigt': 42.597, 'reuss': 4.692, 'vrh': 23.645}"
mp-1018628,ScPt3C,5,Sc1 Pt3 C1,4.247042,4.247042,4.247042,90.0,90.0,90.0,cubic,Pm-3m,0.003981999999999,-6.93287909,-0.17797217849999902,0.654000998499997,False,13.921060391863556,0.0,False,76.60544990860922,"{'voigt': 197.069, 'reuss': 197.069, 'vrh': 197.069}","{'voigt': 14.534, 'reuss': -52.695, 'vrh': -19.081}"
mp-10712,ScRh3C,5,Sc1 Rh3 C1,4.07473446,4.07473446,4.07473446,90.0,90.0,90.0,cubic,Pm-3m,1.6e-06,-8.02562332,-0.494811678499999,0.0,True,8.975446555191418,0.0,False,67.65469436399678,"{'voigt': 213.993, 'reuss': 213.993, 'vrh': 213.993}","{'voigt': 89.311, 'reuss': 87.806, 'vrh': 88.558}"
mp-1188449,ScRhO3,20,Sc1 Rh1 O3,5.122828,5.541807,7.574297,90.0,90.0,90.0,ortho,Pnma,0.000206,-8.189887848,-2.481755849999999,0.051140098124996,False,6.049931768142321,1.049699999999999,False,215.03220185571337,,
mp-1196890,ScRhO3,40,Sc1 Rh1 O3,7.531681,7.560377,10.417083870260669,46.863147485099965,90.0,90.0,mono,P2_1/c,0.0015271,-8.21641368225,-2.508281684249999,0.024614263874996004,False,6.010970822719775,1.119899999999999,False,432.8519261026267,,
mp-7130,ScRu3C,5,Sc1 Ru3 C1,4.06130662,4.06130662,4.06130662,90.0,90.0,90.0,cubic,Pm-3m,7.280000000000002e-05,-8.953600441999999,-0.276731998500001,0.0,True,8.928269046612304,0.0,False,66.98805020090266,"{'voigt': 236.198, 'reuss': 236.198, 'vrh': 236.198}","{'voigt': 141.294, 'reuss': 137.001, 'vrh': 139.147}"
mp-3129,ScSi3Ni,10,Sc1 Si3 Ni1,10.48199975927664,10.48199975927664,3.82633472,90.0,90.0,158.93871526875083,ortho,Cmmm,0.0,-6.256147664999999,-0.5784356899999991,0.0,True,4.130576629017984,0.0,False,151.0805728552126,,
mp-1186993,ScSiO3,5,Sc1 Si1 O3,3.582486,3.582486,3.582486,90.0,90.0,90.0,cubic,Pm-3m,0.1221288,-8.084743016000001,-2.7644089860000003,0.707826589968743,False,4.371425835382467,0.0,False,45.978363101869,,
mp-981376,ScSnO3,5,Sc1 Sn1 O3,4.10743,4.10743,4.10743,90.0,90.0,90.0,cubic,Pm-3m,0.9385749,-7.307863331999999,-2.270678536999999,0.6724758995000021,False,5.072076719298021,0.0,False,69.29637433044239,"{'voigt': 112.688, 'reuss': 112.688, 'vrh': 112.688}","{'voigt': 48.674, 'reuss': 39.521, 'vrh': 44.097}"
mp-1101375,ScTiO3,10,Sc1 Ti1 O3,5.641917910701732,5.641917910701732,5.641917629352719,55.41961691742366,55.41961691742366,55.4196221252559,trig,R-3,2.0024049,-9.381252957,-3.566884129666666,0.069202007875,False,4.121270147889125,0.0,False,113.47907294930623,,
mp-754092,ScTiO3,20,Sc1 Ti1 O3,5.155586,5.519722,7.539189,90.0,90.0,90.0,ortho,Pna2_1,3.995864199999999,-9.353816591000001,-3.539447763666667,0.096638373874998,False,4.359703825171345,0.0,False,214.54572810928386,,
mp-752429,ScTlO3,20,Sc1 Tl1 O3,5.518153,5.681516,8.177845,90.0,90.0,90.0,ortho,Pnma,2.39e-05,-7.165380819000001,-2.455815971666668,0.07876900237499701,False,7.703033722052686,1.2891,True,256.387499472698,,
mp-7276,ScUS3,10,Sc1 U1 S3,3.75350386,6.4003987719971285,9.222035230004314,90.0001006969027,90.00000000000014,107.05107914798067,ortho,Cmcm,5.7428999,-25.159812127000002,-2.070707881687499,0.0,True,5.945328806988968,0.0,False,211.81096223215243,"{'voigt': 79.919, 'reuss': 79.225, 'vrh': 79.572}","{'voigt': 41.394, 'reuss': 36.875, 'vrh': 39.135}"
mp-756546,ScVO3,20,Sc1 V1 O3,5.402772000000925,7.81713000009396,5.109025000061264,89.99944111285708,90.00002181966246,90.00006846228871,ortho,Pnma,7.9999447,-9.254299815500001,-3.202248177500001,0.049391989499998006,False,4.429499293477538,1.5605,False,215.7754359190552,,
mp-972978,ScVO3,5,Sc1 V1 O3,3.786401,3.786401,3.786401,90.0,90.0,90.0,cubic,Pm-3m,1.993307199999999,-8.577903116,-2.525851478,0.725788688999999,False,4.401663411098977,0.0,False,54.284997039030245,,
mp-1246967,ScWN3,20,Sc1 W1 N3,5.707052398964898,6.750560316751418,8.711637155659377,89.93581839363688,105.72187371695787,96.11014758852995,tri,P-1,0.0005648,-9.885290288499998,-1.024203774499999,0.135762279499999,False,5.602060709056989,1.2255,False,321.0965329667152,,
mp-1186999,SiAgO3,5,Si1 Ag1 O3,3.621317,3.621317,3.621317,90.0,90.0,90.0,cubic,Pm-3m,0.153213,-6.277115192,-1.654687447333333,0.48604006533333605,False,6.432114179278898,0.0,False,47.48972232323486,,
mp-972822,SiBO3,5,Si1 B1 O3,3.336259,3.336259,3.336259,90.0,90.0,90.0,cubic,Pm-3m,0.0001585,-6.378583398,-0.9888648348333331,1.919687921312498,False,3.885644914566695,0.0,False,37.13464487955602,"{'voigt': 232.445, 'reuss': 232.445, 'vrh': 232.445}","{'voigt': 103.31, 'reuss': -54.15, 'vrh': 24.58}"
mp-972839,SiBO3,5,Si1 B1 O3,3.502656,3.502656,3.502656,90.0,90.0,90.0,cubic,Pm-3m,0.0613221,-6.38929876,-0.9995801968333331,1.908972559312498,False,3.35776211805348,0.0,False,42.97268208926432,"{'voigt': 203.008, 'reuss': 203.008, 'vrh': 203.008}","{'voigt': 67.556, 'reuss': 39.733, 'vrh': 53.644}"
mp-972827,SiBiO3,5,Si1 Bi1 O3,3.798666,3.798666,3.798666,90.0,90.0,90.0,cubic,Pm-3m,0.0005132,-6.652173252,-1.820326181,0.722310423999996,False,8.63571489384692,0.0,False,54.81423140456447,"{'voigt': 130.571, 'reuss': 130.571, 'vrh': 130.571}","{'voigt': 92.897, 'reuss': 60.816, 'vrh': 76.857}"
mp-1209042,SiCCl3,30,Si1 C1 Cl3,9.596517176288698,9.596517176288698,9.653504712370218,84.01397087717577,84.01397087717577,101.0546714764162,mono,C2/m,0.0033786999999990005,-5.224021857999999,-1.184103157499999,0.142805605036842,False,1.695316511266909,3.423899999999999,False,860.7050523856822,,
mp-769171,SiGeO3,80,Si1 Ge1 O3,5.420948,9.432472,20.06184,90.0,90.0,90.0,ortho,Pbca,7.61e-05,-7.455841849875,-2.477396069875,0.133299435458337,False,3.851924206836593,3.0391,True,1025.8208654925386,,
mp-28289,SiH3F,20,Si1 H3 F1,7.994109,4.8658850000000005,8.650176743792754,64.92894666778508,90.0,90.0,mono,P2_1/c,0.001678899999999,-4.4490883065,-0.9446290437499991,0.020578798249999003,False,1.092025319258814,6.1692,False,304.7762004948863,,
mp-28538,SiH3I,20,Si1 H3 I1,4.725467144688426,8.57542253,10.641499493643186,90.0,102.7791678272254,90.0,mono,P2_1/c,0.0,-3.708836837499999,-0.281870845249999,0.0,True,2.495709266895166,4.2188,False,420.54268874508307,,
mp-1016874,SiHgO3,5,Si1 Hg1 O3,3.664827,3.664827,3.664827,90.0,90.0,90.0,cubic,Pm-3m,0.0012399,-5.83582336,-1.720048743500001,0.49767305583333504,False,9.333758081494263,0.0,False,49.22213362928917,"{'voigt': 221.487, 'reuss': 221.487, 'vrh': 221.487}","{'voigt': 98.828, 'reuss': 37.791, 'vrh': 68.309}"
mp-1186997,SiMoO3,5,Si1 Mo1 O3,3.645502999999999,3.645502999999999,3.645502999999999,90.0,90.0,90.0,cubic,Pm-3m,3.9989593,-7.897829032,-1.6748588009999992,0.8953065618333371,False,5.8961021910090725,0.0,False,48.44761250350568,,
mp-1219220,SiPN3,10,Si1 P1 N3,4.69664,5.275995,5.293046049089786,60.27041811070587,90.0,90.0,mono,P2_1,0.0001226,-9.893975508666667,-0.861556924511906,0.016148769333330003,False,2.9473835594471662,4.3483,False,113.89507069075601,,
mp-36053,SiPN3,20,Si1 P1 N3,5.302685307096867,5.302685307096867,9.41993379249483,89.9081057285983,89.9081057285983,120.22364573808832,mono,Cc,0.0015683,-9.886796926666667,-0.854378342511905,0.023327351333330002,False,2.933504677028675,3.765099999999999,False,228.86785317555882,,
mp-21723,SiPbO3,60,Si1 Pb1 O3,7.0522272,11.221916351892668,13.00114339298283,60.3594302891109,90.0,90.0,mono,P2/c,0.0,-7.392296107166683,-2.5959264841666823,0.0,True,6.312259445639853,3.1904999999999992,False,894.2667610519505,,
mp-978489,SiPbO3,5,Si1 Pb1 O3,3.7481780000000002,3.7481780000000002,3.7481780000000002,90.0,90.0,90.0,cubic,Pm-3m,0.0006146,-6.968344168,-2.171974545,0.42395193916669605,False,8.93326180430379,1.184799999999999,False,52.65754671539653,"{'voigt': 199.931, 'reuss': 199.931, 'vrh': 199.931}","{'voigt': 139.472, 'reuss': 93.305, 'vrh': 116.389}"
mp-978490,SiPdO3,5,Si1 Pd1 O3,3.598276,3.598276,3.598276,90.0,90.0,90.0,cubic,Pm-3m,1.9946826,-6.653262065999999,-1.563445494999999,0.7161838733333381,False,6.504851022798701,0.0,False,46.58900297437676,"{'voigt': 232.071, 'reuss': 232.071, 'vrh': 232.071}","{'voigt': 94.452, 'reuss': 79.679, 'vrh': 87.065}"
mp-776110,SiSnO3,60,Si1 Sn1 O3,7.049169,11.394763,13.098301160199364,60.05563921605454,90.0,90.0,mono,P2/c,2.2000000000000003e-05,-7.442037581833333,-2.5862830018333343,0.029296765500003003,False,4.257681887947367,2.6768,False,911.6581951128397,,
mp-978493,SiSnO3,5,Si1 Sn1 O3,3.712219,3.712219,3.712219,90.0,90.0,90.0,cubic,Pm-3m,0.0001705,-6.9816874040000005,-2.125932824,0.489646943333336,False,6.323000798145838,0.7593999999999991,False,51.15649342831221,"{'voigt': 203.42, 'reuss': 203.42, 'vrh': 203.42}","{'voigt': 137.796, 'reuss': 95.922, 'vrh': 116.859}"
mp-7144,Sm3AlC,5,Sm3 Al1 C1,5.01642188,5.01642188,5.01642188,90.0,90.0,90.0,cubic,Pm-3m,3.7e-06,-5.682542037999999,-0.25654209250000004,0.002639175250001,False,6.446545297756677,0.0,False,126.23569060076314,,
mp-10674,Sm3AlN,5,Sm3 Al1 N1,5.468393,5.468393,5.468393,90.0,90.0,90.0,cubic,Pm-3m,0.004568399999999,-20.010128158000004,1.001796234249997,1.9704026219999982,False,4.99683806206286,0.0,False,163.52311671493808,"{'voigt': 34.496, 'reuss': 34.496, 'vrh': 34.496}","{'voigt': 18.459, 'reuss': 3.282, 'vrh': 10.871}"
mp-1094052,Sm3AlN,5,Sm3 Al1 N1,4.90354893,4.90353862,4.90353862,90.0,90.0,90.0,cubic,Pm-3m,1.0300000000000001e-05,-21.980530780000002,-0.9686063877500001,0.0,True,6.9301832353844866,0.0,False,117.90431881459732,,
mp-10602,Sm3GaC,5,Sm3 Ga1 C1,5.00216,5.00216,5.00216,90.0,90.0,90.0,cubic,Pm-3m,8e-07,-5.598501730000001,-0.315997746000001,0.022991253000000003,False,7.068898461902689,0.0,False,125.16206999407768,"{'voigt': 67.541, 'reuss': 67.541, 'vrh': 67.541}","{'voigt': 48.892, 'reuss': 48.536, 'vrh': 48.714}"
mp-20229,Sm3InC,5,Sm3 In1 C1,5.710743,5.710743,5.710743,90.0,90.0,90.0,cubic,Pm-3m,0.0056879,-3.646163033999999,1.582556494166666,1.872080727999999,False,5.152648080441193,0.0,False,186.24209499590953,,
mp-19716,Sm3InN,5,Sm3 In1 N1,4.9428586,4.94285653,4.94285653,90.0,90.0,90.0,cubic,Pm-3m,6.32e-05,-25.286952030000002,-1.105729227750001,0.0,True,7.973913669621816,0.0,False,120.76308437141928,,
mp-19758,Sm3PbC,5,Sm3 Pb1 C1,5.80783,5.80783,5.80783,90.0,90.0,90.0,cubic,Pm-3m,0.0034647,-3.8382068560000002,1.581207337499999,1.955614291499995,False,5.681599334566553,0.0,False,195.9032708549087,,
mp-10718,Sm3SnC,5,Sm3 Sn1 C1,5.73661,5.73661,5.73661,90.0,90.0,90.0,cubic,Pm-3m,0.0035375999999990005,-4.052777902,1.426021248499999,1.886555795499998,False,5.117494210327947,0.0,False,188.78434476300373,,
mp-1206990,Sm3SnN,5,Sm3 Sn1 N1,4.91656245,4.91656245,4.91656245,90.0,90.0,90.0,cubic,Pm-3m,9e-06,-6.367403964000002,-1.066682363000002,0.0,True,8.156917192057092,0.0,False,118.84603024364935,,
mp-10606,Sm3TlC,5,Sm3 Tl1 C1,5.04207852,5.04207852,5.04207852,90.0,90.0,90.0,cubic,Pm-3m,6.5e-06,-5.489774876000001,-0.33859567316667005,0.0,True,8.646784530731889,0.0,False,128.182522531986,"{'voigt': 66.659, 'reuss': 66.659, 'vrh': 66.659}","{'voigt': 50.009, 'reuss': 49.952, 'vrh': 49.981}"
mp-1075933,SmAgO3,5,Sm1 Ag1 O3,4.068937,4.068937,4.068937,90.0,90.0,90.0,cubic,Pm-3m,5.45e-05,-6.175713672,-1.694632306333333,0.42368547395833206,False,7.548294383676719,0.0,False,67.36633132962034,,
mp-1219105,SmAl3Cu,5,Sm1 Al3 Cu1,6.06681949043275,6.06681949043275,6.06681949043275,139.74439001764753,139.74439001764753,58.24161221922188,tet,I4mm,0.0,-12.672004684000001,-0.516801621999999,0.0,True,5.29894394453913,0.0,False,92.39783841298033,,