mp_id,formula,sites,composition,a_edge (angstrom),b_edge (angstrom),c_edge (angstrom),alpha_ang (deg),beta_ang (deg),gamma_ang (deg),crystal_system,space_group,total_magnetisation (bohr),energy_per_atom (eV/atom),formation_energy (eV/atom),energy_above_hull (eV/atom),stable,density (g/cc),band_gap (eV),direct_bandgap,volume (cubic-angstrom),bulk_modulus (GPa),shear_modulus (GPa)
mp-1208898,SmAl3Ni,20,Sm1 Al3 Ni1,4.07345316,8.15999999,10.70423674,90.0,90.0,90.0,ortho,Pnma,4.1e-06,-4.932730160500019,-0.585640099500018,0.0,True,5.413716690275772,0.0,False,355.80216847132726,,
mp-1187025,SmAlO3,20,Sm1 Al1 O3,5.312557,5.358413,7.531084,90.0,90.0,90.0,ortho,Pnma,0.0,-8.354219320999999,-3.692610324999999,0.0051844454999700005,False,6.981513734627289,4.0771,False,214.38642301701807,,
mp-7405,SmAlO3,20,Sm1 Al1 O3,5.28319658,5.2813461,7.46953229,90.0,90.0,90.0,ortho,Pnma,1e-07,-8.359403766499984,-3.697794770499984,0.0,True,7.181448769432935,4.861399999999999,False,208.41780048360832,"{'voigt': 181.756, 'reuss': 177.786, 'vrh': 179.771}","{'voigt': 113.211, 'reuss': 108.547, 'vrh': 110.879}"
mp-1173486,SmBO3,20,Sm1 B1 O3,4.298529,8.035377322297316,8.868765,90.0,90.0,122.34055352667379,ortho,Pnma,0.0013924,-8.7001538265,-3.451781642333332,0.036507844000000005,False,5.368101981731313,4.6744,True,258.812987764772,,
mp-760477,SmBO3,10,Sm1 B1 O3,4.052414513223691,4.052414513223691,8.811024,90.0,90.0,117.36994137719671,ortho,Ama2,0.0,-8.675841143,-3.427468958833333,0.060820527500000006,False,5.406074521045035,4.3574,False,128.49753616135,,
mp-8627,SmBO3,20,Sm1 B1 O3,6.238567888174618,6.494456474835338,6.490059024781028,93.07748133650095,107.55825982979448,107.92843065558212,tri,P-1,0.0,-8.7366616705,-3.488289486333333,0.0,True,5.9021629053724585,5.2713,False,235.39413174333598,,
mp-3428,SmBPd3,5,Sm1 B1 Pd3,4.359961,4.359961,4.359961,90.0,90.0,90.0,cubic,Pm-3m,8.35e-05,-21.807328234454552,-0.615200364954546,0.107939256818184,False,9.6256996568239,0.0,False,82.87963189669462,"{'voigt': 137.352, 'reuss': 137.352, 'vrh': 137.352}","{'voigt': 16.799, 'reuss': -10.176, 'vrh': 3.312}"
mp-4982,SmBRh3,5,Sm1 B1 Rh3,4.20876944,4.20876944,4.20876944,90.0,90.0,90.0,cubic,Pm-3m,0.0014627,-7.432987418000001,-0.734807114833334,0.0,True,10.465924160236543,0.0,False,74.55304841797864,"{'voigt': 175.916, 'reuss': 175.916, 'vrh': 175.916}","{'voigt': 81.116, 'reuss': 75.704, 'vrh': 78.41}"
mp-972448,SmBS3,20,Sm1 B1 S3,6.05639122,7.40821426,8.86847161,90.0,90.0,90.0,ortho,Pna2_1,0.0,-6.2972980275,-1.534686705833332,0.015498809530000001,False,4.296195400224133,2.4295,True,397.902104166193,,
mp-978503,SmBeO3,5,Sm1 Be1 O3,3.626649,3.626649,3.626649,90.0,90.0,90.0,cubic,Pm-3m,0.999877199999999,-7.548032662,-2.8876562590000012,0.28446229562499903,False,7.219036705560466,0.0,False,47.69980187266984,,
mp-1219113,SmBiS3,20,Sm1 Bi1 S3,4.0460441,10.90302464,11.01537037,90.0,90.0,90.0,ortho,Pnma,0.0,-5.698497573000003,-1.4937577435000031,0.010728265249998,False,6.22665080862403,1.650799999999999,False,485.9333540089203,,
mp-1219075,SmBiTe3,5,Sm1 Bi1 Te3,10.987690548918197,10.987690548918197,10.987690054927615,23.32620415519724,23.32620415519724,23.326205961810075,trig,R3m,0.0,-33.855439856,-0.9580656569999971,0.029470171250018003,False,6.7486379451352825,0.9818000000000001,True,182.6076813011558,,
mp-20016,SmCoO3,20,Sm1 Co1 O3,5.2555446,5.38013421,7.49230809,90.0,90.0,90.0,ortho,Pnma,0.0,-7.906673628999942,-2.567496454999943,0.0,True,8.066922550645563,0.0,False,211.84902183711753,,
mp-22549,SmCoO3,5,Sm1 Co1 O3,3.756973,3.756973,3.756973,90.0,90.0,90.0,cubic,Pm-3m,6.7999999999999976e-06,-7.776120517999999,-2.436943343999999,0.130553110999887,False,8.056754628664423,0.8039000000000001,False,53.02909578224753,,
mp-569163,SmCoSb3,40,Sm1 Co1 Sb3,6.183406,12.107378,12.597188,90.0,90.0,90.0,ortho,Pbcm,0.0066836,-5.5203964679999995,-0.6725951529999991,0.013374387500000001,False,8.093436626839962,0.0,False,943.0863855827371,,
mp-972659,SmCoSi3,5,Sm1 Co1 Si3,5.574695540189257,5.574695540189257,5.574695540189257,137.04593829768228,137.04593829768228,62.367376654779854,tet,I4mm,0.0,-6.248741426,-0.623150037000001,0.0,True,6.133592956307194,0.0,False,79.47229951651218,"{'voigt': 136.665, 'reuss': 135.753, 'vrh': 136.209}","{'voigt': 72.225, 'reuss': 72.098, 'vrh': 72.161}"
mp-13009,SmCrGe3,10,Sm1 Cr1 Ge3,6.1333406494781455,6.1333406494781455,5.713972,90.0,90.0,120.00000700582767,hex_,P6_3/mmc,2.7664745,-6.03225181,-0.38410837600000003,0.042397230333332,False,7.498094420971967,0.0,False,186.14993186970895,,
mp-1105788,SmCrO3,20,Sm1 Cr1 O3,5.35209304,5.54722294,7.65437822,90.0,90.0,90.0,ortho,Pnma,12.0000004,-9.0141752835,-3.1710719595,0.0,True,7.31736891568508,2.4802,False,227.25277373957564,,
mp-19257,SmCrO3,5,Sm1 Cr1 O3,3.877573,3.877573,3.877573,90.0,90.0,90.0,cubic,Pm-3m,2.9999808,-8.816893528,-2.973790204,0.19728175550000002,False,7.130569291617402,1.7362000000000002,False,58.30152946273373,,
mp-15932,SmCrS3,20,Sm1 Cr1 S3,3.7509318,7.80132717,12.91934762,90.0,90.0,90.0,ortho,Pnma,11.997884599999999,-7.037488724000002,-1.680146262500001,0.0010327324999970001,False,5.245410981210801,0.0,False,378.049130336756,,
mp-1208660,SmCrSb3,20,Sm1 Cr1 Sb3,6.086664,6.231522,13.037691,90.0,90.0,90.0,ortho,Pbcm,8.7188645,-24.963970042499987,-0.578927262499985,0.016109634500001,False,7.624387342192836,0.0,False,494.5089368407508,,
mp-1076706,SmCuO3,5,Sm1 Cu1 O3,3.809085,3.809085,3.809085,90.0,90.0,90.0,cubic,Pm-3m,0.0056199,-7.020050262,-2.287715097999999,0.12438620849999901,False,7.869181607659484,0.0,False,55.266503874215694,,
mp-770767,SmCuO3,20,Sm1 Cu1 O3,5.28006365,6.29098458,7.09825327,90.0,90.0,90.0,ortho,Pnma,0.0,-7.1444364705,-2.4121013065,0.0,True,7.378061688081909,0.121799999999999,False,235.78125214601297,,
mp-772548,SmCuO3,10,Sm1 Cu1 O3,5.33426310778921,5.33426310778921,5.3342630342854305,62.44452760431586,62.44452760431586,62.444524345260824,trig,R-3c,0.0008516999999990001,-7.110961194,-2.378626029999999,0.033475276499999006,False,7.685406908840517,0.0,False,113.17609099040732,,
mp-756452,SmDyO3,20,Sm1 Dy1 O3,5.801912,6.059173,8.477487,90.0,90.0,90.0,ortho,Pnma,6.980000000000004e-05,-8.694715268500001,-3.858546332833333,0.074952790624998,False,8.042555098332654,4.822,True,298.02426282522254,,
mp-754203,SmErO3,20,Sm1 Er1 O3,5.743181,6.000227,8.429139,90.0,90.0,90.0,ortho,Pnma,8.93e-05,-8.72604912,-3.9000115280000003,0.059511754124999004,False,8.360501076547395,4.8916,True,290.47141479305986,,
mp-1099588,SmFeO3,5,Sm1 Fe1 O3,3.909141,3.909141,3.909141,90.0,90.0,90.0,cubic,Pm-3m,5.0002742,-8.187931516,-2.581433444000001,0.222370185499999,False,7.066202913845533,0.723499999999999,False,59.73708222101029,,
mp-1105437,SmFeO3,20,Sm1 Fe1 O3,7.90017,6.194917,6.619385,90.0,90.0,90.0,ortho,Pnma,19.999571,-8.075469965,-2.468971893000001,0.33483173650000003,False,5.211953493345574,0.12739999999999901,False,323.95864237366874,,
mp-20243,SmFeO3,20,Sm1 Fe1 O3,5.388497242013814,5.649276500032305,7.715669675637376,89.99959881532075,90.00374658790133,89.99995894579055,ortho,Pnma,20.008487,-8.4103017015,-2.803803629500001,0.0,True,7.188793032592718,1.545,True,234.87355529137713,,
mp-1201728,SmFeSb3,40,Sm1 Fe1 Sb3,6.152078,12.136628,12.721705,90.0,90.0,90.0,ortho,Pbcm,0.0874242,-5.71104036025,-0.595918147249999,0.004467353749999001,False,7.9924278772397415,0.0,False,949.8722371241593,,
mp-1218984,SmGa3Ag,5,Sm1 Ga3 Ag1,4.22360167,4.22360167,6.194045989744162,70.06581825376597,70.06581825376597,90.0,tet,I-4m2,8e-07,-17.610575208,-0.527149344999998,0.0,True,8.017708138010994,0.0,False,96.80214056931155,,
mp-1219033,SmGa3Au,5,Sm1 Ga3 Au1,4.244801622444027,4.244801622444027,6.201054685449637,70.12005672205306,70.12005672205306,90.19452555252904,tet,I4mm,2e-07,-3.994930242000001,-0.5795790015000001,0.0,True,9.437745938141418,0.0,False,97.91348895923721,,
mp-1219014,SmGa3Cu,5,Sm1 Ga3 Cu1,6.040623355103739,6.040623355103739,6.040623355103739,140.16150106571646,140.16150106571646,57.60816426194729,tet,I-4m2,0.0,-15.548303192,-0.5666935580000001,0.0,True,7.8341061908518945,0.0,False,89.67616068597104,,
mp-1219023,SmGa3Ni,5,Sm1 Ga3 Ni1,6.046686035552367,6.046686035552367,6.046686035552367,140.3790890322324,140.3790890322324,57.278155947193966,tet,I-4m2,1e-06,-4.448868922,-0.5322667455000001,0.0519891575,False,7.7902591798431065,0.0,False,89.14653770751671,,
mp-1219024,SmGa3Pd,5,Sm1 Ga3 Pd1,6.128122030070497,6.128122030070497,6.128122030070497,140.2990542473614,140.2990542473614,57.399507788965906,tet,I-4m2,0.0,-4.475526392000001,-0.6789751895,0.0,True,8.310406804215962,0.0,False,93.10332644013087,,
mp-1219019,SmGa3Pt,5,Sm1 Ga3 Pt1,6.140150794561014,6.140150794561014,6.140150794561014,140.5606709390221,140.5606709390221,57.00298115089855,tet,I-4m2,0.0,-4.690881951999998,-0.7160804474999971,0.001752750333333,False,9.94059192369026,0.0,False,92.64604768146822,,
mp-978504,SmGaO3,5,Sm1 Ga1 O3,3.862136999999999,3.862136999999999,3.862136999999999,90.0,90.0,90.0,cubic,Pm-3m,0.0007982999999990001,-7.431014211999999,-2.9129011774999993,0.210192991083328,False,7.727382864072236,2.872,False,57.60803022854421,"{'voigt': 182.901, 'reuss': 182.901, 'vrh': 182.901}","{'voigt': 103.146, 'reuss': 103.126, 'vrh': 103.136}"
mp-1219055,SmGdS3,20,Sm1 Gd1 S3,3.96655604,7.40210746,15.38183537,90.0,90.0,90.0,ortho,Pnma,27.9999991,-8.620073581999998,-2.3781161664999972,0.06639814275000301,False,5.938867582409162,0.6825000000000001,False,451.62413102088664,,
mp-978926,SmGeO3,5,Sm1 Ge1 O3,3.946684,3.946684,3.946684,90.0,90.0,90.0,cubic,Pm-3m,0.0008085999999990001,-7.296009504,-2.458910103,0.508299215468743,False,7.320124011921715,0.0,False,61.47479159443134,"{'voigt': 145.68, 'reuss': 145.68, 'vrh': 145.68}","{'voigt': 69.576, 'reuss': 68.452, 'vrh': 69.014}"
mp-1206999,SmGePd3,5,Sm1 Ge1 Pd3,4.714479,4.714479,4.714479,90.0,90.0,90.0,cubic,Pm-3m,0.018739699999999002,-5.442807,-0.46655511599999905,0.33988957641176304,False,8.59321247950223,0.0,False,104.78548230971651,,
mp-755717,SmHoO3,20,Sm1 Ho1 O3,5.765116,6.024105,8.446944,90.0,90.0,90.0,ortho,Pnma,0.0022105,-8.709853042,-3.877823318999999,0.066932636999998,False,8.225467010815883,4.5947,True,293.35952797041665,,
mp-1209783,SmIn3Pt,40,Sm1 In3 Pt1,9.82521714,9.82521714,9.82521714,90.0,90.0,90.0,cubic,Pm-3n,0.0162315,-4.37729798375,-0.563849846749999,0.006781797049996,False,9.66267781180884,0.0,False,948.4762739944873,,
mp-752437,SmInO3,20,Sm1 In1 O3,5.622973,5.952571,8.238917,90.0,90.0,90.0,ortho,Pnma,0.0,-7.3619454195,-2.897616840833334,0.030393086624998,False,7.543226160313635,2.9444,True,275.7659939007913,,
mp-1101371,SmLuO3,20,Sm1 Lu1 O3,5.6990359999999995,5.958661,8.299142,90.0,90.0,90.0,ortho,Pnma,3.26e-05,-8.7701539355,-3.953322614833333,0.039545404249997,False,8.798590817220292,4.7782,True,281.82743897260025,,
mp-1208832,SmLuSe3,20,Sm1 Lu1 Se3,4.07736948,11.488933607447827,11.77183871349825,71.12824409197553,90.0,90.0,mono,P2_1/m,0.0,-24.324467995,-2.174970955770831,0.0,True,7.1564507343553,0.7935000000000001,True,521.8042975042364,,
mp-1232244,SmMgS3,10,Sm1 Mg1 S3,6.966321516517164,6.966321516517164,6.822820184326127,74.23197223084654,74.23197223084654,110.9817349249409,mono,C2/m,1.9999869,-5.28642254,-1.5335955694999992,0.37326023700000205,False,3.316061329112147,0.210599999999999,False,271.2697787767995,,
mp-1232277,SmMgS3,30,Sm1 Mg1 S3,6.855687,6.855686661323576,17.754389,90.0,90.0,119.99999680901294,trig,R-3,4.0884582,-5.354491920333333,-1.601664949833333,0.305190856666668,False,3.734280216565725,0.0,False,722.6671575165008,,
mp-1232154,SmMgSe3,20,Sm1 Mg1 Se3,8.590458495334053,11.936868,7.771778929029891,90.0,135.29838520802178,90.0,mono,C2/m,0.001269199999999,-4.7896251025000005,-1.42226698590625,0.323557296400004,False,4.876270430881663,0.0,False,560.5813376025875,,
mp-1232201,SmMgSe3,30,Sm1 Mg1 Se3,6.991373,6.991373074471494,19.476678,90.0,90.0,119.99999491613028,trig,R-3,3.298056,-4.848789734666667,-1.481431618072917,0.264392664233336,False,4.973328984440144,0.0,False,824.4617063966383,,
mp-1237966,SmMgSe3,10,Sm1 Mg1 Se3,7.365345897195935,7.365345897195935,6.893110344365597,76.29442333397732,76.29442333397732,116.97139841161605,mono,C2/m,0.00020349999999900003,-4.747523801,-1.38016568440625,0.36565859790000405,False,4.600929604537901,0.0,False,297.06455386314633,,
mp-1075973,SmMnO3,5,Sm1 Mn1 O3,3.895077,3.895077,3.895077,90.0,90.0,90.0,cubic,Pm-3m,4.0002107,-8.536504286,-2.791607397586207,0.199603839999999,False,7.117536561204043,0.0,False,59.09464695105582,,
mp-22203,SmMnO3,20,Sm1 Mn1 O3,5.35857691,5.63273957,7.66998512,90.0,90.0,90.0,ortho,Pnma,16.000001,-8.736108126,-2.991211237586206,0.0,True,7.267318238962783,0.27440000000000003,False,231.50675196280685,,
mp-8466,SmNiGe3,10,Sm1 Ni1 Ge3,4.13327889,4.101477119950204,10.992976368494046,100.75150089773203,90.0,90.0,ortho,Cmmm,0.0,-5.471417503,-0.5978562270000001,0.0,True,7.744995016288582,0.0,False,183.0875319113596,,
mp-1099668,SmNiO3,5,Sm1 Ni1 O3,3.74007269,3.74008343,3.74006907,90.0,90.0,90.0,cubic,Pm-3m,2.299999999999998e-06,-7.398819197999998,-2.330298031999998,0.12265020300000001,False,8.158840690326429,0.0,False,52.316773930654946,,
mp-22495,SmNiO3,20,Sm1 Ni1 O3,5.286820540067558,5.44978590002765,7.5308864900905155,90.0002161979555,90.00051183212634,89.9997111240032,ortho,Pnma,3.9999879,-7.521469400999999,-2.4529482349999983,0.0,True,7.868814167394936,0.0,False,216.98020304035126,,
mp-568805,SmNiSb3,60,Sm1 Ni1 Sb3,6.22180732,12.58594006,18.27256432,90.0,90.0,90.0,ortho,Pbcm,0.0,-5.294055699833333,-0.716910392833331,0.0,True,7.99820812136359,0.0,False,1430.8750662376272,,
mp-981250,SmPuO3,5,Sm1 Pu1 O3,4.353633,4.353633,4.353633,90.0,90.0,90.0,cubic,Pm-3m,4.8867867,-9.709650824,-2.849570497749998,0.733932247125007,False,8.90159294072665,0.0,False,82.5192836183423,"{'voigt': 121.889, 'reuss': 121.889, 'vrh': 121.889}","{'voigt': 27.414, 'reuss': 13.405, 'vrh': 20.41}"
mp-7167,SmRh3C,5,Sm1 Rh3 C1,4.18469494,4.18469494,4.18469494,90.0,90.0,90.0,cubic,Pm-3m,1e-07,-7.640704825999999,-0.43266977849999905,0.0,True,10.674781394120435,0.0,False,73.28100412492455,,
mp-3317,SmRhO3,20,Sm1 Rh1 O3,5.29624651,5.8243808999999995,7.70683536,90.0,90.0,90.0,ortho,Pnma,1e-07,-7.914245706,-2.528890301999999,0.0,True,8.417087719860298,0.7331000000000001,True,237.73550180216748,,
mp-1207179,SmSbO3,5,Sm1 Sb1 O3,4.269023,4.269023,4.269023,90.0,90.0,90.0,cubic,Pm-3m,0.000105499999999,-6.755500734,-2.017206656,0.860086121000011,False,6.832410945909324,0.0,False,77.80105459668391,,
mp-1218986,SmSbTe3,5,Sm1 Sb1 Te3,4.4038742086551474,4.4038742086551474,10.838103956911466,78.27782463907543,78.27782463907543,59.999996865370655,trig,R3m,2.6900000000000003e-05,-4.65075504,-0.995254028999999,0.058006843142857006,False,6.145763368397908,0.8487999999999991,True,176.95446119676572,,
mp-31118,SmScO3,20,Sm1 Sc1 O3,5.52626673,5.7843165800000005,7.97599084,90.0,90.0,90.0,ortho,Pnma,0.0,-9.100252110499998,-3.921264459499999,0.0,True,6.338811595774986,4.366899999999999,True,254.95794113861217,"{'voigt': 163.271, 'reuss': 160.948, 'vrh': 162.11}","{'voigt': 82.439, 'reuss': 81.235, 'vrh': 81.837}"
mp-1188840,SmScS3,20,Sm1 Sc1 S3,6.45689741,7.10807002,9.55313825,90.0,90.0,90.0,ortho,Pnma,0.0,-6.9904757905,-2.2972490019999983,0.0,True,4.416134161166416,1.8487,True,438.45158688597496,,
mp-1068639,SmSi3Ir,5,Sm1 Si3 Ir1,4.21883581,4.21883581,5.7377661883118,111.56997727542128,111.56997727542128,90.0,tet,I4mm,0.0,-22.543301632000002,-0.860587320999999,0.0,True,8.124779907079963,0.0,False,87.23604944251882,,
mp-10283,SmSi3Ni,10,Sm1 Si3 Ni1,3.9568844945035324,4.01565305,10.736463504048125,90.00000090833369,100.6072144404334,89.99999977634909,ortho,Cmmm,0.0,-5.988472838,-0.6335374570000001,0.037302574999998006,False,5.8092529948357186,0.0,False,167.68164443983315,,
mp-1068782,SmSi3Os,5,Sm1 Si3 Os1,5.785105781996583,5.785105781996583,5.785105781996583,137.29237881002064,137.29237881002064,61.98850036311564,tet,I4mm,1e-07,-22.471325432,-0.6634360410000021,0.0,True,8.014784803368045,0.0,False,88.02160355719296,,
mp-1207214,SmSi3Pt,5,Sm1 Si3 Pt1,4.320298,4.320298,5.687626758444246,112.32116796258045,112.32116796258045,90.0,tet,I4mm,4.39e-05,-6.142893681999999,-0.729758972999999,0.029508607499996002,False,7.968321748746902,0.0,False,89.54639253865015,,
mp-1069765,SmSi3Rh,5,Sm1 Si3 Rh1,5.722168258866891,5.722168258866891,5.722168258866891,136.9642061921586,136.9642061921586,62.49312767834291,tet,I4mm,0.0,-6.467183284000001,-0.7954136650000011,0.0,True,6.501788714055651,0.0,False,86.20219627028747,,
mp-978506,SmSiO3,5,Sm1 Si1 O3,3.768474,3.768474,3.768474,90.0,90.0,90.0,cubic,Pm-3m,0.000167,-7.834020336,-2.8364629000000012,0.6600386046249921,False,7.026074818066906,0.0,False,53.517592677572,,
mp-1207210,SmSiPt3,5,Sm1 Si1 Pt3,4.06509942,4.06509942,5.46109093,90.0,90.0,90.0,tet,P4mm,1e-07,-6.7370641699999965,-1.065603344999996,0.0,True,14.05234214448189,0.0,False,90.24470944245644,,
mp-1201411,SmSn3Ru,40,Sm1 Sn3 Ru1,9.715241290007661,9.715214030004423,9.715225830004794,89.99995399923816,90.00010415021458,90.00009925533455,cubic,Pm-3n,2.2e-06,-5.670209943999998,-0.46586909599999804,0.0,True,8.801757391497667,0.0,False,916.9778901454858,,
mp-1099583,SmTiO3,5,Sm1 Ti1 O3,3.913789,3.913789,3.913789,90.0,90.0,90.0,cubic,Pm-3m,0.0057852,-8.935535380000001,-3.4439431466666672,0.196237995249983,False,6.820078468672492,0.0,False,59.95041928908818,,
mp-22416,SmTiO3,20,Sm1 Ti1 O3,5.435781,5.7483,7.790579,90.0,90.0,90.0,ortho,Pnma,4.0002091,-9.083165728,-3.591573494666667,0.048607647249983,False,6.71847143348329,0.0,False,243.42832611817204,,
mp-754787,SmTlO3,20,Sm1 Tl1 O3,5.702096,6.071963,8.641722,90.0,90.0,90.0,ortho,Pnma,1.2100000000000001e-05,-6.794826388500001,-2.408038135166669,0.073156752124997,False,8.940700349866306,1.166699999999999,True,299.2016143348699,,
mp-776439,SmTmO3,20,Sm1 Tm1 O3,5.731255,5.992965,8.403303,90.0,90.0,90.0,ortho,Pnma,0.0019637,-8.733400844,-3.924406718000002,0.05160596737499801,False,8.452390361659015,4.9205000000000005,True,288.6300180537114,,
mp-1188225,SmVO3,20,Sm1 V1 O3,5.36908064,5.69279481,7.64646575,90.0,90.0,90.0,ortho,Pnma,7.9999985,-8.9790061535,-3.249731109500001,0.0,True,7.085078065698469,1.5136,True,233.71479456005082,,
mp-20702,SmVO3,5,Sm1 V1 O3,3.904088,3.904088,3.904088,90.0,90.0,90.0,cubic,Pm-3m,2.0010207,-8.679960838000001,-2.950685794000001,0.299045315499999,False,6.9568406930946685,0.0,False,59.5057310357224,,
mp-1173461,SmVSb3,20,Sm1 V1 Sb3,6.256508,9.011929,9.677230999999999,90.0,90.0,90.0,ortho,Pbcm,9.5234256,-24.534569511583324,-0.346280063583324,0.291217202750001,False,6.897164829279933,0.0,False,545.6333078593692,,
mp-1173542,SmVSb3,20,Sm1 V1 Sb3,10.530323,6.919452,8.419677,90.0,90.0,90.0,ortho,Pbcm,12.2710071,-24.275161829583325,-0.08687238158332401,0.550624884749999,False,6.134266698646247,0.0,False,613.4918883591788,,
mp-1208885,SmVSb3,20,Sm1 V1 Sb3,6.037017,6.270428,13.090781,90.0,90.0,90.0,ortho,Pbcm,2.5937263,-24.820691180083326,-0.6324017320833261,0.005095534249999,False,7.594275304023907,0.0,False,495.54733137700117,,
mp-755685,SmYO3,20,Sm1 Y1 O3,5.879084,6.009628,8.508557,90.0,90.0,90.0,ortho,Pna2_1,1.0900000000000002e-05,-9.058397775,-3.844085645,0.06382654999999801,False,6.347127174516112,4.2852,True,300.61674476601416,,
mp-772724,SnBO3,20,Sn1 B1 O3,5.201150461215768,5.201150461215768,12.49287573503787,83.76979992557087,83.76979992557087,117.81740730154826,mono,Cc,0.0009544999999990001,-7.3803365075,-2.273767179333333,0.09052466656249701,False,4.034906474455163,2.417099999999999,False,292.2274095201998,,
mp-972442,SnBO3,5,Sn1 B1 O3,3.492841,3.492841,3.492841,90.0,90.0,90.0,cubic,Pm-3m,0.000295299999999,-6.342363178,-1.235793849833333,1.128497996062497,False,6.9176403743407615,0.0,False,42.61244452154257,"{'voigt': 225.06, 'reuss': 225.06, 'vrh': 225.06}","{'voigt': 114.095, 'reuss': 32.04, 'vrh': 73.067}"