mp_id,formula,sites,composition,a_edge (angstrom),b_edge (angstrom),c_edge (angstrom),alpha_ang (deg),beta_ang (deg),gamma_ang (deg),crystal_system,space_group,total_magnetisation (bohr),energy_per_atom (eV/atom),formation_energy (eV/atom),energy_above_hull (eV/atom),stable,density (g/cc),band_gap (eV),direct_bandgap,volume (cubic-angstrom),bulk_modulus (GPa),shear_modulus (GPa)
mp-1188804,DyMnO3,20,Dy1 Mn1 O3,3.400136,6.008605,12.99438,90.0,90.0,90.0,ortho,Pnma,16.0059018,-8.4585087345,-2.73365396741954,0.323793291166664,False,6.641157921993781,1.0173,True,265.476147196803,,
mp-22103,DyMnO3,20,Dy1 Mn1 O3,5.330322,5.867879,7.499174,90.0,90.0,90.0,ortho,Pnma,16.0023262,-8.7599994545,-3.03514468741954,0.022302571166664002,False,7.51659738148573,0.41339999999999905,False,234.55679858536567,,
mp-542479,DyMnO3,30,Dy1 Mn1 O3,6.1360443737037915,6.136044411024402,11.42852703000001,89.9999999171085,90.00000009731869,119.99952032911301,hex_,P6_3cm,24.0000003,-8.782302025666665,-3.057447258586204,0.0,True,7.096767809612047,0.0,False,372.6490140346333,,
mp-1087478,DyNiGe3,10,Dy1 Ni1 Ge3,10.925047495391992,10.925047495391992,4.07458642,90.0,90.0,158.59203978666332,ortho,Cmmm,0.0,-5.4258666139999985,-0.5723474593333301,0.0,True,8.215337684127627,0.0,False,177.51308184843802,,
mp-19265,DyNiO3,20,Dy1 Ni1 O3,5.1539950305542215,5.4989376700087425,7.390526828034628,89.99977501788497,89.99809542094742,90.00004844869795,ortho,Pnma,3.9999993,-7.549553843500002,-2.501074798833333,0.0,True,8.53635371800083,0.0,False,209.45859694541633,,
mp-1183790,DyPaO3,5,Dy1 Pa1 O3,4.308022,4.308022,4.308022,90.0,90.0,90.0,cubic,Pm-3m,1.9999704,-8.622724074,-2.821412929333332,0.9913032527999981,False,9.170216529913105,0.0,False,79.95281100327924,,
mp-15856,DyRh3C,5,Dy1 Rh3 C1,4.14780277,4.14780277,4.14780277,90.0,90.0,90.0,cubic,Pm-3m,4e-07,-7.690970075999999,-0.5029771498333301,0.0,True,11.24465609403912,0.0,False,71.35990971472211,,
mp-1183821,DyRhO3,5,Dy1 Rh1 O3,3.940347,3.940347,3.940347,90.0,90.0,90.0,cubic,Pm-3m,0.026764299999999002,-7.377436208000001,-2.012122925333332,0.569480332999997,False,8.506478527795034,0.0,False,61.17914549087616,,
mp-1212884,DyRhO3,20,Dy1 Rh1 O3,5.21847713,5.75597356,7.573281,90.0,90.0,90.0,ortho,Pnma,0.0,-7.9469165409999984,-2.581603258333331,0.0,True,9.15095799998858,0.8883000000000001,True,227.48179478810232,,
mp-1206121,DyRu3C,5,Dy1 Ru3 C1,4.13466309,4.13466309,4.13466309,90.0,90.0,90.0,cubic,Pm-3m,3.2e-06,-8.546785410000002,-0.21273568183333502,0.0,True,11.222840118817329,0.0,False,70.68388009407856,,
mp-1207184,DySbO3,5,Dy1 Sb1 O3,4.248024,4.248024,4.248024,90.0,90.0,90.0,cubic,Pm-3m,8.36e-05,-6.611775036,-1.893523079333332,1.039270389200001,False,7.197205784014324,0.0,False,76.65860027562857,,
mp-1225550,DySbTe3,5,Dy1 Sb1 Te3,10.769234830247365,10.769234830247365,10.769234888564045,23.337075891441092,23.337075891441092,23.337076122781916,trig,R3m,0.0048819,-4.626130252,-0.9906713623333311,0.029413949,False,6.43683017973294,0.8479000000000001,False,172.08457561205267,,
mp-31120,DyScO3,20,Dy1 Sc1 O3,5.45367,5.747842,7.988247,90.0,90.0,90.0,ortho,Pnma,0.0014180999999990002,-9.1200012305,-3.961055700833332,0.025833509374999,False,6.776053476754478,4.459799999999999,True,250.40624850722793,"{'voigt': 167.613, 'reuss': 161.742, 'vrh': 164.678}","{'voigt': 83.453, 'reuss': 81.071, 'vrh': 82.262}"
mp-1184176,DyScS3,20,Dy1 Sc1 S3,6.3762186100000005,7.00288526,9.52664085,90.0,90.0,90.0,ortho,Pnma,0.0,-15.772778999,-2.275721433687499,0.0,True,4.7413681351763355,1.773699999999999,False,425.38287482371675,,
mp-769393,DySeO3,40,Dy1 Se1 O3,12.221477920340183,5.931740473017943,8.885066980292216,73.8017579521964,89.99950873505098,89.9991948997875,mono,P2_1/c,0.0,-7.1167769105,-2.525142906302083,0.0,True,6.216564189531993,1.8154,False,618.5495841025353,,
mp-1070146,DySi3Ir,5,Dy1 Si3 Ir1,5.7086516658581115,5.7086516658581115,5.7086516658581115,137.16507379328974,137.16507379328974,62.1841639831454,tet,I4mm,0.0,-6.728773653999999,-0.7822208943333321,0.0,True,8.578545158973853,0.0,False,84.97159278687396,,
mp-1184153,DySnO3,5,Dy1 Sn1 O3,4.138491,4.138491,4.138491,90.0,90.0,90.0,cubic,Pm-3m,0.0004956,-6.844083535999999,-2.149717456333332,0.8484255742499951,False,7.712473706428706,0.0,False,70.88038130870991,,
mp-779599,DyTiO3,20,Dy1 Ti1 O3,5.3356,5.716985,7.692903,90.0,90.0,90.0,ortho,Pnma,3.9904202,-9.103798283,-3.632248170999999,0.05728245949999201,False,7.313117184258952,0.0,False,234.66081411815694,,
mp-752435,DyTmO3,20,Dy1 Tm1 O3,5.637906,5.907363,8.328938,90.0,90.0,90.0,ortho,Pnma,5.3300000000000015e-05,-8.748449256499999,-3.959497251833333,0.088062089749999,False,9.085365315800441,4.8481000000000005,True,277.3965902475892,,
mp-22789,DyVO3,20,Dy1 V1 O3,5.25263721,5.66556438,7.54368515,90.0,90.0,90.0,ortho,Pnma,8.0,-9.005861853999999,-3.296628931333332,0.0,True,7.735287972077501,1.6567999999999992,False,224.4936902037986,,
mp-1181506,DyVSb3,20,Dy1 V1 Sb3,6.182767890643809,6.151420120641386,12.753633100051083,90.00015439147775,89.99970565237847,89.99836353796448,ortho,Pbcm,7.3129507,-5.841759232999999,-0.6239021693333311,0.0,True,7.924766147831898,0.0,False,485.0564125197636,,
mp-768333,DyYO3,30,Dy1 Y1 O3,6.445616693652206,6.445616693652206,12.800039,90.0,90.0,120.00000711982452,hex_,P6_3cm,0.0005771999999990001,-9.077124425333333,-3.882854416666666,0.09660443454166501,False,6.477198017239404,3.0318,False,460.54369843257217,,
mp-10038,Er3AlC,5,Er3 Al1 C1,5.303405,5.303405,5.303405,90.0,90.0,90.0,cubic,Pm-3m,6.599999999999999e-06,-3.8902109279999992,1.445268622500001,1.87665023,False,6.020002827954106,0.0,False,149.16412373447514,"{'voigt': 38.49, 'reuss': 38.49, 'vrh': 38.49}","{'voigt': 24.951, 'reuss': 7.866, 'vrh': 16.408}"
mp-568021,Er3AlC,5,Er3 Al1 C1,4.80526343,4.80526343,4.80526343,90.0,90.0,90.0,cubic,Pm-3m,1.1e-06,-5.766861158,-0.43138160749999904,0.0,True,8.09299874311908,0.0,False,110.95620736062973,,
mp-1017558,Er3AlN,5,Er3 Al1 N1,4.68650677,4.68650677,4.68650677,90.0,90.0,90.0,cubic,Pm-3m,6.0999999999999975e-06,-24.631899488,-1.104468587749997,0.0,True,8.75615370928303,0.0,False,102.9313683395319,,
mp-10274,Er3GaC,5,Er3 Ga1 C1,5.253141,5.253141,5.253141,90.0,90.0,90.0,cubic,Pm-3m,0.0013796,-4.005390444,1.186593145000002,1.629007375999998,False,6.684066283967081,0.0,False,144.9630018561145,"{'voigt': 46.623, 'reuss': 46.623, 'vrh': 46.623}","{'voigt': 30.371, 'reuss': 12.236, 'vrh': 21.304}"
mp-10275,Er3InC,5,Er3 In1 C1,5.533707,5.533707,5.533707,90.0,90.0,90.0,cubic,Pm-3m,0.0021078,-3.528453038,1.609746095166668,1.9685486399999972,False,6.159974741033247,0.0,False,169.45269521711592,"{'voigt': 40.114, 'reuss': 40.114, 'vrh': 40.114}","{'voigt': 23.447, 'reuss': 1.697, 'vrh': 12.572}"
mp-31058,Er3InN,5,Er3 In1 N1,4.73048637,4.73048637,4.73048637,90.0,90.0,90.0,cubic,Pm-3m,2.8900000000000005e-05,-27.906057936000003,-1.209328625749998,0.0,True,9.892062421616881,0.0,False,105.85646487896055,,
mp-20430,Er3PbC,5,Er3 Pb1 C1,5.625335,5.625335,5.625335,90.0,90.0,90.0,cubic,Pm-3m,0.003957,-3.673881772,1.655012026500002,2.082803885666666,False,6.725611565425041,0.0,False,178.01031634695946,,
mp-22537,Er3SnC,5,Er3 Sn1 C1,5.552727,5.552727,5.552727,90.0,90.0,90.0,cubic,Pm-3m,0.003401099999999,-3.901564085999999,1.486714669500001,2.018977587000002,False,6.134640004639514,0.0,False,171.20599409098728,,
mp-21028,Er3TlC,5,Er3 Tl1 C1,5.566596,5.566596,5.566596,90.0,90.0,90.0,cubic,Pm-3m,0.0013847,-3.430886723999999,1.6297720838333332,1.942665543999997,False,6.913657358469097,0.0,False,172.49206030413646,,
mp-1184150,ErAlO3,5,Er1 Al1 O3,3.69546,3.69546,3.69546,90.0,90.0,90.0,cubic,Pm-3m,1.2800000000000001e-05,-8.226557721999999,-3.595122190999999,0.18607017420000102,False,7.9705295534887615,3.0097,False,50.466770895183345,,
mp-754184,ErAlO3,10,Er1 Al1 O3,3.445752201661779,3.445752201661779,11.449682,90.0,90.0,120.00000387196617,hex_,P6_3/mmc,9.9e-06,-8.326985139,-3.695549607999999,0.0856427572,False,6.833301217588388,3.560399999999999,False,117.7313500695251,,
mp-756458,ErAlO3,20,Er1 Al1 O3,5.11890551,5.31641715,7.32664956,90.0,90.0,90.0,ortho,Pnma,0.0,-8.394795851499998,-3.763360320499997,0.017832044700002003,False,8.069583178361684,6.0359,True,199.38917785385337,,
mp-5426,ErB3Mo,10,Er1 B3 Mo1,3.14853331,5.396441535175439,6.795746495150258,101.79579804711479,90.0,90.0,mono,P2_1/m,1e-07,-7.730199435,-0.639890588499999,0.0,True,8.686545192349238,0.0,False,113.02732547099706,,
mp-10791,ErBO3,60,Er1 B1 O3,7.182487,8.983940598343525,9.83816738777614,81.3354232764494,85.65877983185844,77.35866253089368,tri,P-1,0.0047293,-8.723252135333333,-3.505053416166665,0.062195206666666,False,7.363473545399187,5.161799999999999,False,611.7684685111603,,
mp-1194043,ErBO3,30,Er1 B1 O3,6.471126237126997,6.471126237126997,9.485993880779056,70.42592956727138,70.42592956727138,60.08046882160288,mono,C2/c,0.0,-8.785447342,-3.567248622833331,0.0,True,7.094939422246892,5.6533999999999995,False,317.461550106139,,
mp-760405,ErBO3,10,Er1 B1 O3,3.91566690267303,3.91566690267303,8.606045,90.0,90.0,117.34165673129739,ortho,Ama2,0.0,-8.692274711,-3.474075991833333,0.093172630999999,False,6.405482703178708,4.563000000000001,False,117.21055077696268,,
mp-10061,ErBPd3,5,Er1 B1 Pd3,4.304722,4.304722,4.304722,90.0,90.0,90.0,cubic,Pm-3m,0.0008943,-22.697874053545462,-0.667244014712127,0.11476224599999701,False,10.352814333897127,0.0,False,79.76921708025137,"{'voigt': 146.762, 'reuss': 146.762, 'vrh': 146.762}","{'voigt': 29.915, 'reuss': 11.378, 'vrh': 20.647}"
mp-3769,ErBRh3,5,Er1 B1 Rh3,4.15895118,4.15895118,4.15895118,90.0,90.0,90.0,cubic,Pm-3m,0.6594741,-7.482302914000002,-0.8142960758333341,0.0,True,11.23663194217241,0.0,False,71.9368583489622,,
mp-1184148,ErBeO3,5,Er1 Be1 O3,3.52044117,3.52044117,3.52044117,90.0,90.0,90.0,cubic,Pm-3m,1.0005525,-7.517869266,-2.887666327999999,0.38202304149999905,False,8.53547726852335,0.0,False,43.630608873692886,,
mp-754636,ErBiO3,10,Er1 Bi1 O3,6.115481636425377,6.115481636425377,6.115481541806254,58.601506681618844,58.601506681618844,58.60151703853859,trig,R-3,0.0004836,-7.458220703,-2.797893476000001,0.051517180000001,False,8.999615342539997,2.47,False,156.55404848043221,,
mp-754943,ErBiO3,10,Er1 Bi1 O3,6.136270504281978,6.136270504281978,6.136270219661207,58.52031599536222,58.52031599536222,58.52031052791564,trig,R3c,3.9500000000000005e-05,-7.478872331,-2.818545103999999,0.030865552000001004,False,8.925716189586977,3.1136,False,157.85021467352348,,
mp-562779,ErCoO3,20,Er1 Co1 O3,5.08216856,5.42485142,7.3068925,90.0,90.0,90.0,ortho,Pnma,0.0,-7.9621309464999435,-2.653127237499942,0.0,True,9.040484271457935,1.4471,False,201.45109439388898,,
mp-1205515,ErCoSi3,10,Er1 Co1 Si3,10.701056061279607,10.701056061279607,3.939435,90.0,90.0,158.8887684736206,ortho,Cmmm,0.0168076,-6.192066639,-0.596648714999999,0.013481436529413,False,6.345451071382611,0.0,False,162.48243991586335,,
mp-19063,ErCrO3,20,Er1 Cr1 O3,5.18848926,5.52090784,7.50302878,90.0,90.0,90.0,ortho,Pnma,12.0000001,-9.049514932000001,-3.236585073,0.0,True,8.25931696741174,0.2571,False,214.92554267079566,,
mp-1184157,ErCuO3,5,Er1 Cu1 O3,3.765783,3.765783,3.765783,90.0,90.0,90.0,cubic,Pm-3m,0.0006659999999990001,-6.906084548,-2.203922848999999,0.27477319975000003,False,8.669239076915824,0.0,False,53.403026653845295,,
mp-19935,ErFeO3,20,Er1 Fe1 O3,5.23478674,5.585513029999999,7.59284986,90.0,90.0,90.0,ortho,Pnma,20.0023773,-8.4404627115,-2.8641381045000003,0.017954620499999,False,8.111015951090808,1.5703,True,222.00710582040696,,
mp-1213036,ErGa3Os,15,Er1 Ga3 Os1,6.35239464,6.35239464,6.35239464,90.0,90.0,90.0,cubic,Pm-3m,0.1299785,-5.461292469999997,-0.48541760849999604,0.0,True,11.012323599663805,0.0,False,256.3376578663605,,
mp-1103943,ErGa3Ru,15,Er1 Ga3 Ru1,6.34642962,6.34642962,6.34642962,90.0,90.0,90.0,cubic,Pm-3m,0.0,-5.169319738666667,-0.5840378551666661,0.0,True,9.305795499368324,0.0,False,255.6162178538704,,
mp-1184164,ErGaO3,5,Er1 Ga1 O3,3.78183872,3.78183872,3.78183872,90.0,90.0,90.0,cubic,Pm-3m,0.0,-7.303556287999998,-2.815616718499998,0.3826839683,False,8.748926586965672,2.9153000000000002,False,54.089007446067164,,
mp-1213082,ErGaO3,20,Er1 Ga1 O3,5.269754,5.574949,7.612088,90.0,90.0,90.0,ortho,Pnma,0.000473,-7.63556537,-3.1476258005,0.050674886299998,False,8.464254915929127,3.663099999999999,True,223.6325630585219,,
mp-1213088,ErGaO3,30,Er1 Ga1 O3,5.984873670303996,5.984869476386794,11.609145760000187,90.00001880099482,89.99998473878601,119.99995305556789,hex_,P6_3cm,0.0,-7.672729524666667,-3.184789955166667,0.013510731633331,False,7.884501906865194,2.9001,True,360.1146356972316,,
mp-754208,ErInO3,20,Er1 In1 O3,5.521226,5.840363,8.176804,90.0,90.0,90.0,ortho,Pnma,0.0004479,-7.379971363,-2.945816249333332,0.079764492999999,False,8.31501488044752,2.882299999999999,True,263.6689277873229,,
mp-772217,ErInO3,30,Er1 In1 O3,6.238329887978586,6.238327990326567,12.21741889000002,90.00000063421919,89.99999773816414,120.000088227248,hex_,P6_3cm,0.0,-7.4443653626666695,-3.010210249000002,0.015370493333330001,False,7.986693005599136,1.9651,False,411.7619876949493,,
mp-1184162,ErIrO3,5,Er1 Ir1 O3,3.962793,3.962793,3.962793,90.0,90.0,90.0,cubic,Pm-3m,0.0001163,-7.419279493999999,-1.769272292999999,0.8266765342499941,False,10.872891436715898,0.0,False,62.230624822273896,,
mp-778151,ErLuO3,20,Er1 Lu1 O3,5.582688,5.843866,8.226505,90.0,90.0,90.0,ortho,Pnma,2.1000000000000002e-05,-8.78571314,-3.999055284333333,0.091383549624998,False,9.657491079156205,4.524999999999999,True,268.38545271091147,,
mp-1232164,ErMgS3,10,Er1 Mg1 S3,6.962137285690508,6.962137285690508,6.650083262502583,76.93160931384496,76.93160931384496,119.2804662098602,mono,C2/m,0.0002757,-5.23265149,-1.509997984499998,0.371650319000001,False,3.800624897179323,0.0,False,251.4507872746821,,
mp-1232145,ErMgSe3,10,Er1 Mg1 Se3,7.366527542036139,7.366527542036139,6.9284450841558956,76.64564285398282,76.64564285398282,120.37765148174022,mono,C2/m,6.21e-05,-4.721561170999999,-1.384376519406249,0.329355584249998,False,4.953906540201688,0.0,False,287.22705770763497,,
mp-1232210,ErMgSe3,30,Er1 Mg1 Se3,6.873524,6.873523655735826,19.189641,90.0,90.0,120.0000016568165,trig,R-3,0.9583974,-4.836362883333334,-1.499178231739583,0.21455387191666303,False,5.4367336061148475,0.0,False,785.1567335028349,,
mp-19217,ErMnO3,30,Er1 Mn1 O3,6.07945323831714,6.0794305987064226,11.380856130000005,90.00000081636674,89.99999730638648,119.99967307371733,hex_,P6_3cm,23.999999,-8.797218649666666,-3.082495226252873,0.0,True,7.389986188010839,0.0,False,364.2792410031499,,
mp-19319,ErMnO3,20,Er1 Mn1 O3,5.1987350513304404,5.75413520145949,7.322887230001997,89.99999593771057,90.00008523305515,90.00258599930808,ortho,Pnma,15.9989688,-8.762813469,-3.048090045586206,0.034405180666666,False,8.192693324289696,1.0455,True,219.05849135196715,,
mp-1078854,ErNiGe3,10,Er1 Ni1 Ge3,10.974939544564608,10.974939544564608,4.070911,90.0,90.0,158.50639804976424,ortho,Cmmm,2.6300000000000002e-05,-5.3956931,-0.5523052889999981,0.0008297035000000001,False,8.205197827175224,0.0,False,179.65866912906583,,
mp-1189736,ErNiO3,20,Er1 Ni1 O3,5.559041,5.181402,9.058277001568012,55.06460694538058,90.0,90.0,mono,P2_1/c,4.0001758,-7.5543288539999995,-2.515981152999998,0.0015767070000000001,False,8.507100699687618,0.34040000000000004,False,213.8945756855631,,
mp-18983,ErNiO3,20,Er1 Ni1 O3,5.10714498,5.49542731,7.3320099,90.0,90.0,90.0,ortho,Pnma,4.0000005,-7.555905561,-2.5175578599999993,0.0,True,8.842572876016028,0.0,False,205.77977925513696,,
mp-568727,ErRh3C,5,Er1 Rh3 C1,4.13379555,4.13379555,4.13379555,90.0,90.0,90.0,cubic,Pm-3m,1e-07,-7.705516856,-0.5276552735000011,0.0,True,11.471221290600914,0.0,False,70.63939649788001,,
mp-1213022,ErRhO3,20,Er1 Rh1 O3,5.18710261,5.72004523,7.53016477,90.0,90.0,90.0,ortho,Pnma,0.0,-7.951800669000006,-2.596618730000005,0.0,True,9.458659049049958,0.9642000000000001,True,223.42346421208666,,
mp-1206911,ErRu3C,5,Er1 Ru3 C1,4.12095413,4.12095413,4.12095413,90.0,90.0,90.0,cubic,Pm-3m,1.0700000000000001e-05,-8.569525722,-0.24560733750000102,0.0,True,11.44813656589655,0.0,False,69.98312660578436,,
mp-1212985,ErScO3,20,Er1 Sc1 O3,5.420689,5.720861,7.943644,90.0,90.0,90.0,ortho,Pnma,0.0,-9.120838515500001,-3.972024329499999,0.040889039374999006,False,7.016210424971044,4.4171,True,246.3404099624588,,
mp-1190244,ErScS3,20,Er1 Sc1 S3,6.353452,6.970915,9.539495,90.0,90.0,90.0,ortho,Pna2_1,0.0006445,-16.136859364750002,-2.251075411104167,0.01725918258333,False,4.848556838459342,1.7554999999999992,False,422.4982603816597,,
mp-12386,ErSi3Ni,10,Er1 Si3 Ni1,3.8925469961058177,3.92260637,10.60764250917275,90.0,100.57244124494817,90.0,ortho,Cmmm,0.0,-5.964020074000001,-0.6392581580000001,0.020331149999997,False,6.47056021399698,0.0,False,159.21774320026535,,
mp-1225459,ErSiNi3,5,Er1 Si1 Ni3,5.706942796749062,5.706942796749062,5.706942796749062,141.27947073508594,141.27947073508594,55.9156591590529,tet,I4mm,0.0025728,-6.080526042000001,-0.6138366659999991,0.014741681499998001,False,8.545931561956653,0.0,False,72.17062530617459,,
mp-1184204,ErTaO3,5,Er1 Ta1 O3,4.022902,4.022902,4.022902,90.0,90.0,90.0,cubic,Pm-3m,0.000207,-9.040627105999999,-2.784921232466666,0.721276198613351,False,10.105336456427127,0.0,False,65.10560203138375,,
mp-756296,ErTiO3,20,Er1 Ti1 O3,5.303883,5.688936,7.660294,90.0,90.0,90.0,ortho,Pnma,3.9341065,-9.1054427035,-3.644023935166667,0.058028161249980004,False,7.561352072588911,0.0,False,231.137505183394,,
mp-1184219,ErTlO3,5,Er1 Tl1 O3,4.406,4.406,4.406,90.0,90.0,90.0,cubic,Pm-3m,2.0279758,-6.351558452,-1.994943663666667,0.583822038499999,False,8.146911804794327,0.0,False,85.532955416,,
mp-19205,ErVO3,20,Er1 V1 O3,5.20978186,5.64494742,7.49784195,90.0,90.0,90.0,ortho,Pnma,8.0,-9.009617456500001,-3.3105158775,0.0,True,8.018613803040648,1.5838,False,220.50361904722976,,
mp-1184207,ErZnO3,5,Er1 Zn1 O3,3.827502,3.827502,3.827502,90.0,90.0,90.0,cubic,Pm-3m,0.0002491,-6.419305086,-2.285035998999999,0.4598706945,False,8.311758825701606,0.0,False,56.07202994545843,,
mp-1069296,Eu3InO,5,Eu3 In1 O1,5.05264029,5.05256428,5.05271312,90.0,90.0,90.0,cubic,Pm-3m,21.3701509,-9.167340545999997,-1.453046447333332,0.0,True,7.552961565604926,0.0,False,128.98965140747632,,
mp-1077622,EuAgO3,5,Eu1 Ag1 O3,4.089373,4.089373,4.089373,90.0,90.0,90.0,cubic,Pm-3m,6.4883625,-7.10164906,-1.506662538333333,0.403265286833333,False,7.474642543153219,0.0,False,68.38646826734634,,
mp-1225249,EuAl3Si,5,Eu1 Al3 Si1,6.239298854844108,6.239298854844108,6.239298854844108,139.24424590935337,139.24424590935337,59.002621838477076,tet,I4mm,7.0426657,-13.831104786000003,-0.33291632600000304,0.028563792999998002,False,4.2270611160855704,0.0,False,102.52771690227227,,
mp-21455,EuAlO3,20,Eu1 Al1 O3,5.318991,5.33985,7.555933,90.0,90.0,90.0,ortho,Pnma,23.9990034,-9.0998939205,-3.324379768500001,0.111482013999999,False,7.023941445821058,0.0,False,214.60824909909647,"{'voigt': 177.324, 'reuss': 177.178, 'vrh': 177.251}","{'voigt': 108.04, 'reuss': 103.715, 'vrh': 105.877}"
mp-973892,EuAlO3,5,Eu1 Al1 O3,3.768155,3.768155,3.768155,90.0,90.0,90.0,cubic,Pm-3m,5.996878,-9.0909795,-3.315465348000001,0.12039643449999901,False,7.043378478043641,0.0,False,53.50400309174233,,
mp-983564,EuAsO3,5,Eu1 As1 O3,3.998452,3.998452,3.998452,90.0,90.0,90.0,cubic,Pm-3m,6.6835438,-8.219218426000001,-2.258794933500001,0.276965650499999,False,7.140400682928812,0.0,False,63.92572475193852,"{'voigt': 164.961, 'reuss': 164.961, 'vrh': 164.961}","{'voigt': 78.366, 'reuss': 78.263, 'vrh': 78.314}"
mp-1184383,EuAuO3,5,Eu1 Au1 O3,4.109532,4.109532,4.109532,90.0,90.0,90.0,cubic,Pm-3m,6.5049061,-7.157114180000001,-1.475938794000001,0.475574181999999,False,9.496959262589133,0.0,False,69.40281719206341,,
mp-1225223,EuBO3,10,Eu1 B1 O3,4.042074832259541,4.042074832259541,8.9696,90.0,90.0,118.49722622889352,ortho,Ama2,11.9994295,-9.420712439999999,-3.058435099833334,0.063179333666667,False,5.435040532289112,0.0,False,128.79283262488732,,