mp_id,formula,sites,composition,a_edge (angstrom),b_edge (angstrom),c_edge (angstrom),alpha_ang (deg),beta_ang (deg),gamma_ang (deg),crystal_system,space_group,total_magnetisation (bohr),energy_per_atom (eV/atom),formation_energy (eV/atom),energy_above_hull (eV/atom),stable,density (g/cc),band_gap (eV),direct_bandgap,volume (cubic-angstrom),bulk_modulus (GPa),shear_modulus (GPa)
mp-1079352,SrRuO3,10,Sr1 Ru1 O3,5.360793739625691,5.360793739625691,7.473878,90.0,90.0,144.55919476940736,ortho,Cmcm,2.004342,-7.309746427,-2.147603698,0.043007939000001,False,6.311421570444362,0.0,False,124.54563470890515,,
mp-1179112,SrRuO3,20,Sr1 Ru1 O3,5.1995190000000004,5.210166,14.282888,90.0,90.0,90.0,ortho,Pnma,1.2542997,-6.8561200505,-1.6939773215,0.49663431550000103,False,4.063075897935461,0.0,False,386.9285364843332,,
mp-1192792,SrRuO3,20,Sr1 Ru1 O3,13.159769,13.167603,17.98677,90.0,90.0,90.0,ortho,Pnma,32.0,-3.1924812135,1.9696615155,4.160273152500002,False,0.50440284123544,0.007200000000000001,False,3116.7945187666323,,
mp-22390,SrRuO3,20,Sr1 Ru1 O3,5.5432724,5.57521296,7.87656975,90.0,90.0,90.0,ortho,Pnma,8.0012349,-7.352754366000002,-2.190611637000002,0.0,True,6.458339792097221,0.0,False,243.42479049130682,"{'voigt': 166.375, 'reuss': 165.955, 'vrh': 166.165}","{'voigt': 72.529, 'reuss': 70.009, 'vrh': 71.269}"
mp-22534,SrRuO3,5,Sr1 Ru1 O3,3.667213,3.667213,6.633684,90.0,90.0,90.0,tet,P4/mmm,0.006208399999999,-6.84201519,-1.679872460999999,0.5107391760000021,False,4.405534976894925,0.0,False,89.21277546643073,,
mp-34212,SrRuO3,10,Sr1 Ru1 O3,5.5547982916717356,5.5547982916717356,5.5547982916717356,120.29846350210688,119.16261957012121,90.4701445981182,ortho,Imma,3.9994139,-7.349090623000004,-2.1869478940000042,0.0036637429999970004,False,6.460546059190099,0.0,False,121.67083063950935,,
mp-4346,SrRuO3,5,Sr1 Ru1 O3,3.987275,3.987275,3.987275,90.0,90.0,90.0,cubic,Pm-3m,2.0018387,-7.3114153680000005,-2.149272639,0.041338998000001,False,6.20007774291131,0.0,False,63.39114104699642,,
mp-4525,SrRuO3,10,Sr1 Ru1 O3,5.585515930721422,5.585515930721422,5.585515930721422,120.78613372218197,120.78613372218197,88.64368554092889,tet,I4/mcm,4.0143909,-7.346132181000004,-2.183989452000004,0.006622184999997001,False,6.458091259535982,0.0,False,121.7170792137346,,
mp-611033,SrRuO3,20,Sr1 Ru1 O3,5.166891,5.199313,13.16028,90.0,90.0,90.0,ortho,Pnma,1.3669357,-6.8430263375,-1.680883608499999,0.5097280285000021,False,4.446776516704734,0.0,False,353.5414934632131,,
mp-1187192,SrSbO3,5,Sr1 Sb1 O3,4.208672,4.208672,4.208672,90.0,90.0,90.0,cubic,Pm-3m,0.000120699999999,-6.508668765999999,-2.375606296999999,0.132098440799997,False,5.733048487761328,0.0,False,74.54787045732388,,
mp-1204655,SrSbSe3,80,Sr1 Sb1 Se3,4.210294,15.852011,33.670018,90.0,90.0,90.0,ortho,P2_12_12_1,0.0443251,-4.50531472275,-1.243481970156249,0.0,True,5.276147211705713,0.35809999999999903,False,2247.1917757468314,,
mp-1187191,SrScO3,5,Sr1 Sc1 O3,4.139926,4.139926,4.139926,90.0,90.0,90.0,cubic,Pm-3m,1.0000531,-7.7603096140000005,-3.1865535720000002,0.091257467249998,False,4.2259742883780245,0.0,False,70.95413907681151,,
mp-3395,SrSeO3,10,Sr1 Se1 O3,4.464503015954924,5.48280168,6.553714733550757,90.0,107.2429274882555,90.0,mono,P2_1/m,0.0,-6.32210198,-2.31565746346875,0.0,True,4.651279266562305,3.7027,False,153.21182131644215,,
mp-555098,SrSeO3,20,Sr1 Se1 O3,4.47018024,5.47644898,12.51970382,90.0,90.0,90.0,ortho,Pnma,0.0,-6.3220367205,-2.315592203968749,6.525950000035863e-05,False,4.650252675821593,3.886199999999999,False,306.49128877949005,,
mp-1067925,SrSi3Au,5,Sr1 Si3 Au1,5.861096704670664,5.861096704670664,5.861096704670664,135.6158621219051,135.6158621219051,64.57478075641392,tet,I4mm,1e-07,-18.779617818,-0.36923481700000005,0.013149417000001001,False,6.305498264378386,0.0,False,97.13400905670049,,
mp-1069139,SrSi3Ni,5,Sr1 Si3 Ni1,5.711751159890741,5.711751159890741,5.711751159890741,137.15508885787054,137.15508885787054,62.199515410115794,tet,I4mm,0.0,-11.124077308,-0.43434290499999906,0.0,True,4.496896688434337,0.0,False,85.14101013633858,,
mp-1017439,SrSiO3,5,Sr1 Si1 O3,3.698902,3.698902,3.698902,90.0,90.0,90.0,cubic,Pm-3m,2.8e-06,-7.50927637,-3.116950543,0.32427592999999905,False,5.371420069070963,2.383099999999999,False,50.607918520880645,,
mp-1173151,SrSiO3,20,Sr1 Si1 O3,4.4257663457734635,7.63678595532656,10.902415,90.0,90.0,91.06611217193151,mono,Pc,0.001374899999999,-6.9305118545,-2.5381860275,0.9030404455000001,False,2.951351668119932,0.0514,True,368.42290552265007,,
mp-18313,SrSiO3,30,Sr1 Si1 O3,6.945185745322333,6.95536271137833,9.712505184059008,69.57432700844036,83.49285053136076,75.5612653574994,tri,P-1,0.0,-7.8165328636666676,-3.424207036666666,0.017019436333333002,False,3.832191555006368,4.3766,True,425.6098140634538,,
mp-3978,SrSiO3,30,Sr1 Si1 O3,7.136260512764844,7.136260512764844,10.904495096996445,71.42083430773009,71.42083430773009,60.15957470494317,mono,C2/c,0.0,-7.8335523,-3.441226473,0.0,True,3.641838872596811,4.6251,False,447.8557103265806,,
mp-561547,SrSiO3,40,Sr1 Si1 O3,6.156284,7.549925,13.625937212907596,63.226383111465154,90.0,90.0,mono,P2_1/c,0.0006382,-7.7975248545,-3.4051990275,0.036027445500000005,False,3.846085818732822,4.8212,False,565.4296903578274,,
mp-30834,SrSn3Pd,5,Sr1 Sn3 Pd1,4.8053844718407035,4.805384471968166,6.644368712912075,111.185159584096,111.18515996488625,89.98720191343052,tet,I4mm,0.0,-4.359321092000004,-0.5791159990000041,0.0,True,6.927141914522925,0.0,False,131.883941392334,"{'voigt': 56.483, 'reuss': 56.302, 'vrh': 56.392}","{'voigt': 14.911, 'reuss': 11.912, 'vrh': 13.412}"
mp-12866,SrSnO3,10,Sr1 Sn1 O3,5.726366740281351,5.726367056537289,5.726367037919684,90.48428039769696,119.45242147967657,119.98990291320983,ortho,Imma,0.0,-6.742876205500002,-2.633699613500002,0.003659023999998,False,6.335096060087697,1.6118000000000001,False,133.32770579400238,,
mp-12867,SrSnO3,10,Sr1 Sn1 O3,5.755857675696124,5.755857372322541,5.755854613948987,120.91879939293918,120.91880339267503,88.41596686931939,tet,I4/mcm,0.0,-6.7398282725000005,-2.630651680499999,0.006706956999999,False,6.354962395647654,1.5550000000000002,False,132.91090821475046,"{'voigt': 138.925, 'reuss': 137.852, 'vrh': 138.388}","{'voigt': 83.659, 'reuss': 82.592, 'vrh': 83.126}"
mp-2879,SrSnO3,20,Sr1 Sn1 O3,5.73820206,5.72649997,8.10161313,90.0,90.0,90.0,ortho,Pnma,0.0,-6.7465352295,-2.6373586375,0.0,True,6.345516909051056,1.7365,False,266.2174999396318,"{'voigt': 137.575, 'reuss': 137.455, 'vrh': 137.515}","{'voigt': 75.222, 'reuss': 74.683, 'vrh': 74.953}"
mp-546973,SrSnO3,5,Sr1 Sn1 O3,4.114859,4.114859,4.114859,90.0,90.0,90.0,cubic,Pm-3m,0.0,-6.698800456000001,-2.589623864000001,0.047734773499999,False,6.061480890045354,0.9698000000000001,False,69.67305836625314,"{'voigt': 142.602, 'reuss': 142.602, 'vrh': 142.602}","{'voigt': 88.63, 'reuss': 87.564, 'vrh': 88.097}"
mp-1205419,SrSnS3,20,Sr1 Sn1 S3,3.89318425,8.30673434,14.2045019,90.0,90.0,90.0,ortho,Pnma,0.0,-14.067571032,-1.2682026126875,0.0,True,4.374305090181207,0.8335999999999991,False,459.3685815383808,,
mp-1186755,SrTaO3,5,Sr1 Ta1 O3,4.066878,4.066878,4.066878,90.0,90.0,90.0,cubic,Pm-3m,0.00023769999999900002,-8.959535526,-3.278887796466667,0.059606806506677004,False,7.815019078429382,0.0,False,67.26411512562386,,
mp-21898,SrTbO3,20,Sr1 Tb1 O3,6.048345,6.226708,8.597645,90.0,90.0,90.0,ortho,Pnma,3.9985691,-7.380450356,-3.145615410333333,0.121943571874999,False,6.042046191047738,0.0,False,323.7983001948792,,
mp-989530,SrTcN3,10,Sr1 Tc1 N3,3.756696771180636,6.4650016790974565,6.670802246472785,104.35407370884464,90.0000001844469,106.89034950428258,mono,C2/m,0.0,-14.242953072,-0.543638045249999,0.040815144499998006,False,5.049104206342522,0.5244,False,149.73162118535504,"{'voigt': 103.819, 'reuss': 97.962, 'vrh': 100.89}","{'voigt': 46.271, 'reuss': 37.922, 'vrh': 42.097}"
mp-989546,SrTcN3,10,Sr1 Tc1 N3,6.653808092597952,6.653808092597952,5.768975,90.0,90.0,143.10083523174745,ortho,Cmcm,0.0007503999999990001,-14.2638688065,-0.5645537797499991,0.019899409999998,False,4.929941673152915,0.0,False,153.35081193079495,,
mp-989586,SrTcN3,10,Sr1 Tc1 N3,6.695544670720225,6.695544670720225,5.7196359999999995,90.0,90.0,143.28496455293552,ortho,C222_1,0.0008895,-14.263860421499999,-0.5645453947499981,0.019907794999999003,False,4.93180533846463,0.0,False,153.292862646688,"{'voigt': 85.622, 'reuss': 84.513, 'vrh': 85.068}","{'voigt': 28.653, 'reuss': 17.063, 'vrh': 22.858}"
mp-989627,SrTcN3,20,Sr1 Tc1 N3,6.088211309409509,7.5253256552888805,7.52532632785268,92.20739880472375,101.00720615879833,78.99280676062655,mono,C2/c,0.0,-14.283768216499999,-0.584453189749999,0.0,True,4.551416369146704,1.581799999999999,False,332.2089200514949,,
mp-1079334,SrTcO3,10,Sr1 Tc1 O3,5.6151143690591665,5.6151143690591665,5.6151143690591665,120.32607591401633,119.26897682138645,90.35347684609211,ortho,Imma,5.8404076,-7.779043273499999,-2.399653263499999,0.055315276000001,False,6.179490482928688,0.0,False,125.55473589302032,,
mp-1188414,SrTcO3,20,Sr1 Tc1 O3,5.616075280002509,5.548233330000012,7.976984190004225,89.99999999999619,89.99988899982633,89.99998128524192,ortho,Pnma,3.2300000000000006e-05,-7.834358549500001,-2.454968539500001,0.0,True,6.242943339731504,0.0,False,248.55721198037097,,
mp-12631,SrTcO3,5,Sr1 Tc1 O3,3.96238547,3.96239136,3.96240069,90.0,90.0,90.0,cubic,Pm-3m,2.1712035,-7.7572603165,-2.3778703065,0.077098233,False,6.235672386085119,0.0,False,62.21175901326076,,
mp-1179315,SrTeO3,120,Sr1 Te1 O3,5.9925049999999995,14.6049537808344,26.80127975061172,83.29955334093475,83.59040345353645,78.17669559735717,tri,P1,0.029800499999999,-6.313742546083334,-2.377819146416667,0.003206168583333,False,4.619314360035913,3.2315,False,2270.903792588304,,
mp-1179320,SrTeO3,120,Sr1 Te1 O3,5.993651,14.591210919247143,26.70280780491647,93.7879474160375,96.31558572281963,101.83785508648694,mono,C2/c,0.0021157,-6.312616380833334,-2.3766929811666673,0.0043323338333330005,False,4.636886935741783,3.3726000000000003,False,2262.2976675373766,,
mp-561385,SrTeO3,60,Sr1 Te1 O3,14.386796080106846,14.386796080106846,15.284444180172853,58.71163675295468,58.71163675295468,23.721943475799016,mono,C2,0.0,-6.314576811166668,-2.378653411500001,0.0023719034999990004,False,4.862303271650491,3.478899999999999,False,1078.7087840165068,,
mp-647158,SrTeO3,120,Sr1 Te1 O3,5.9965459375000645,14.589294085953684,26.71530825191991,83.54535156113215,83.5572243800104,78.15374115517626,mono,Cc,5.7100000000000006e-05,-6.31073056275,-2.374807163083333,0.006218151916667001,False,4.634721960585883,3.3579,False,2263.354433895126,,
mp-662523,SrTeO3,30,Sr1 Te1 O3,5.955489,9.200745105996143,12.319028414102185,110.46617777668031,90.04590535757258,90.82730034675635,tri,P1,0.0002825,-6.285391332,-2.349467932333334,0.031557382666666,False,4.147340853419161,3.174,False,632.3339984652432,,
mp-667421,SrTeO3,120,Sr1 Te1 O3,5.993651,14.591210919247143,26.70280780491647,93.7879474160375,96.31558572281963,101.83785508648694,tri,P-1,0.0007905999999990001,-6.310394317166668,-2.374470917500001,0.0065543974999990005,False,4.636886935741783,3.4208,False,2262.2976675373766,,
mp-972117,SrTeO3,20,Sr1 Te1 O3,7.23965219,6.791806533858942,8.679399905916359,53.497350934178776,90.0,90.0,mono,P2_1/c,0.0,-6.316948714666667,-2.381025315,0.0,True,5.096457796406144,3.6116,False,343.049326886097,,
mp-4651,SrTiO3,10,Sr1 Ti1 O3,5.522329700714994,5.522329559400709,5.534898478941332,119.92490712678152,119.92490461029365,89.99999866323975,tet,I4/mcm,0.0,-8.438022916,-3.551662291666667,0.0,True,5.093987781835845,1.848799999999999,False,119.62507795144641,"{'voigt': 168.404, 'reuss': 168.036, 'vrh': 168.22}","{'voigt': 101.262, 'reuss': 100.965, 'vrh': 101.114}"
mp-5229,SrTiO3,5,Sr1 Ti1 O3,3.91270131,3.91270131,3.91270131,90.0,90.0,90.0,cubic,Pm-3m,0.0,-8.437552862,-3.5511922376666663,0.00047005399999900006,False,5.086511723754529,1.771999999999999,False,59.90045030664282,"{'voigt': 170.929, 'reuss': 170.929, 'vrh': 170.929}","{'voigt': 108.497, 'reuss': 108.497, 'vrh': 108.497}"
mp-551830,SrTiO3,10,Sr1 Ti1 O3,5.533921314506576,5.533921683353598,5.533925593272801,120.02786883098358,120.02787511443206,89.9517676624055,tet,I4/mcm,0.0,-8.437938167999999,-3.551577543666666,8.474800000080054e-05,False,5.087203751701338,1.786999999999999,True,119.78460372892171,,
mp-776018,SrTiO3,30,Sr1 Ti1 O3,5.628854382615525,5.628854382615525,13.886038,90.0,90.0,120.00000449712095,hex_,P6_3/mmc,3.26e-05,-8.398920444666667,-3.512559820333334,0.039102471333333,False,4.797913331143005,1.7362000000000002,True,381.021066927438,,
mp-1080529,SrTiS3,10,Sr1 Ti1 S3,6.622387790666747,6.622387790666747,5.812368,90.0,90.0,119.99999790870348,hex_,P6_3/mmc,0.0001941,-6.239343795,-1.838744033166666,0.082437121,False,3.48544654112479,0.0,False,220.75622591753705,,
mp-981367,SrTlO3,5,Sr1 Tl1 O3,4.279558,4.279558,4.279558,90.0,90.0,90.0,cubic,Pm-3m,0.0011998,-5.40582679,-1.6242701456666682,0.24066696550000902,False,7.203327832753382,0.0,False,78.3784643099874,"{'voigt': 98.451, 'reuss': 98.451, 'vrh': 98.451}","{'voigt': 46.862, 'reuss': 39.933, 'vrh': 43.398}"
mp-1186758,SrTmO3,5,Sr1 Tm1 O3,4.316318,4.316318,4.316318,90.0,90.0,90.0,cubic,Pm-3m,0.999033,-7.323091074,-3.119328557000001,0.20589536299999803,False,6.28884423301585,0.0,False,80.4155987800097,,
mp-18717,SrVO3,5,Sr1 V1 O3,3.900891,3.900891,3.900891,90.0,90.0,90.0,cubic,Pm-3m,0.999467,-8.00291119,-2.878867755,0.039101676860283006,False,5.21885807260035,0.0,False,59.35966561911505,,
mp-989513,SrWN3,10,Sr1 W1 N3,3.822532280416036,6.427569315845293,6.700715156385955,102.95633722681592,89.99998228696403,107.29877021203403,mono,C2/m,0.0,-19.587837456,-0.807895963250001,0.018614444,False,6.813809556373789,1.2682,False,152.79145926957835,"{'voigt': 105.48, 'reuss': 94.462, 'vrh': 99.971}","{'voigt': 49.568, 'reuss': 43.142, 'vrh': 46.355}"
mp-989625,SrWN3,10,Sr1 W1 N3,3.6742352485732224,6.354455054426977,6.648418908190925,110.0319124680853,96.44294237030216,91.02012007421278,tri,P1,0.0,-19.6064519,-0.826510407249999,0.0,True,7.197288498726832,1.1076,False,144.6505729883572,,
mp-1186764,SrWO3,5,Sr1 W1 O3,4.101269,4.101269,4.101269,90.0,90.0,90.0,cubic,Pm-3m,1.9998355,-8.354587706,-2.455699439000001,0.19504557100000103,False,7.689681846972675,0.0,False,68.98501547948386,,
mp-1217777,SrZnIn3,5,Sr1 Zn1 In3,6.887776839897164,6.887776839897164,6.887776839897164,140.73125346928603,140.73125346928603,56.744659470492095,tet,I4mm,0.0,-2.536667262,-0.290728675999999,0.0,True,6.361886939399258,0.0,False,129.84983297225554,,
mp-1186757,SrZnO3,5,Sr1 Zn1 O3,3.980064999999999,3.980064999999999,3.980064999999999,90.0,90.0,90.0,cubic,Pm-3m,0.3169806,-5.430285769999999,-1.871074826999999,0.16797229800000002,False,5.294603309951961,0.0,False,63.04788092844678,,
mp-1020622,SrZrO3,10,Sr1 Zr1 O3,5.78296588,5.78296588,4.18518549,90.0,90.0,90.0,tet,P4/mbm,0.0,-8.6612185885,-3.644416241500001,0.017242587,False,5.382536367967061,3.168099999999999,False,139.96387922066543,"{'voigt': 144.423, 'reuss': 140.325, 'vrh': 142.374}","{'voigt': 90.182, 'reuss': 87.896, 'vrh': 89.039}"
mp-1068742,SrZrO3,5,Sr1 Zr1 O3,4.176861,4.176861,4.2749880000000005,90.0,90.0,90.0,tet,P4mm,0.000111,-8.63012045,-3.613318103,0.04834072550000101,False,5.050542179423131,3.2609,False,74.58215804793349,,
mp-1080575,SrZrO3,10,Sr1 Zr1 O3,5.812358170295947,5.812358170295947,5.812358170295947,90.50057896488529,119.61211846385415,119.81080515265577,ortho,Imma,0.0,-8.673868736500001,-3.657066389500001,0.004592438999999,False,5.402446176547386,3.4652,False,139.44806583680602,,
mp-3323,SrZrO3,5,Sr1 Zr1 O3,4.197594,4.197594,4.197594,90.0,90.0,90.0,cubic,Pm-3m,0.0,-8.623552264,-3.606749917,0.054908911500000004,False,5.092976318759586,3.214399999999999,False,73.96074740540564,"{'voigt': 152.318, 'reuss': 152.318, 'vrh': 152.318}","{'voigt': 91.087, 'reuss': 84.917, 'vrh': 88.002}"
mp-3626,SrZrO3,20,Sr1 Zr1 O3,5.8148645780526484,5.8148645780526484,8.25266177,90.0,90.0,90.63032988376749,ortho,Cmcm,0.0,-8.671277419,-3.654475072000001,0.007183756499999001,False,5.39990308071661,3.416,False,279.02747839948415,,
mp-4387,SrZrO3,20,Sr1 Zr1 O3,5.79524115,5.8442896,8.21457412,90.0,90.0,90.0,ortho,Pnma,0.0,-8.6784611755,-3.661658828500002,0.0,True,5.415575890210902,3.6122,False,278.2199660312183,"{'voigt': 145.812, 'reuss': 145.795, 'vrh': 145.804}","{'voigt': 83.332, 'reuss': 82.623, 'vrh': 82.978}"
mp-5076,SrZrO3,10,Sr1 Zr1 O3,5.8440420188140685,5.844042428843067,5.844044603108989,120.84016561649685,120.84016029087132,88.55086965626374,tet,I4/mcm,0.0,-8.6691658485,-3.652363501500001,0.009295327,False,5.408526222661621,3.5667,False,139.29130396935383,"{'voigt': 145.137, 'reuss': 140.924, 'vrh': 143.03}","{'voigt': 88.64, 'reuss': 86.307, 'vrh': 87.474}"
mp-557203,SrZrO3,40,Sr1 Zr1 O3,8.396673,8.396673,8.396673,90.0,90.0,90.0,cubic,P2_13,4.6100000000000016e-05,-8.62373121625,-3.606928869250001,0.054729959249999,False,5.090274630005099,3.542,False,592.0000195401844,,
mp-613402,SrZrO3,5,Sr1 Zr1 O3,4.405374,4.405374,4.405374,90.0,90.0,90.0,cubic,Pm-3m,0.027883699999999,-6.161220496,-1.144418149,2.5172406795,False,4.405798138641195,0.0,False,85.49650328956366,,
mp-5193,SrZrS3,20,Sr1 Zr1 S3,6.76185335,7.15875562,9.80481376,90.0,90.0,90.0,ortho,Pnma,0.0,-6.608256288,-2.077214803499998,0.006412831499997,False,3.849113661274756,1.1777,True,474.6162826351481,"{'voigt': 69.876, 'reuss': 68.692, 'vrh': 69.284}","{'voigt': 37.242, 'reuss': 34.895, 'vrh': 36.069}"
mp-558760,SrZrS3,20,Sr1 Zr1 S3,3.84019975,8.58682343,13.99646858,90.0,90.0,90.0,ortho,Pnma,0.0,-6.6146691194999985,-2.083627634999996,0.0,True,3.9582074137901833,0.551199999999999,True,461.5351916601778,,
mp-541570,SrZrSe3,20,Sr1 Zr1 Se3,3.992994,9.063053,14.655838,90.0,90.0,90.0,ortho,Pnma,0.0011343,-18.028254337500005,-1.862227603937503,0.027114558499999,False,5.206313945914518,0.16690000000000002,True,530.3759627979628,,
mp-1187189,TaAgO3,5,Ta1 Ag1 O3,3.99937,3.99937,3.99937,90.0,90.0,90.0,cubic,Pm-3m,6.599999999999999e-06,-8.303033604,-2.3922839567999983,0.04500039250000001,False,8.743087804133681,1.7306,False,63.96976476254995,,
mp-9890,TaAgO3,10,Ta1 Ag1 O3,5.650974755688438,5.650974755688438,5.650975556689659,59.12014480768523,59.12014480768523,59.120138172206374,trig,R-3c,0.0001804,-8.316438579,-2.405688931799999,0.0315954175,False,8.945674399821078,1.9156,False,125.0421701330729,,
mp-561242,TaAgS3,10,Ta1 Ag1 S3,7.378684638448035,7.378684638448035,7.785585,90.0,90.0,153.42397583432506,ortho,Cmc2_1,0.0008173,-6.379751500999999,-0.9547627162999981,0.00020056400000000003,False,6.742514150089965,0.0,False,189.64022178739583,,
mp-5821,TaAgS3,10,Ta1 Ag1 S3,3.39027577,7.248142955641601,7.78929486,90.0,90.0,103.52514614729118,ortho,Cmcm,1e-07,-6.379952065,-0.9549632802999991,0.0,True,6.870790228678843,0.0,False,186.09968231755818,"{'voigt': 87.828, 'reuss': 77.936, 'vrh': 82.882}","{'voigt': 45.532, 'reuss': 27.659, 'vrh': 36.596}"
mp-972222,TaBeO3,5,Ta1 Be1 O3,3.421618,3.421618,3.421618,90.0,90.0,90.0,cubic,Pm-3m,0.001707999999999,-8.196267866,-2.106223181466666,1.008994493106668,False,9.8640512476562,0.0,False,40.058489189736044,"{'voigt': 277.307, 'reuss': 277.307, 'vrh': 277.307}","{'voigt': 105.827, 'reuss': 101.362, 'vrh': 103.594}"
mp-1208583,TaCl3O,20,Ta1 Cl3 O1,3.80935944,11.22580866,11.22580866,90.0,90.0,90.0,tet,P4_2/mnm,0.0,-6.754344861999999,-2.282245156466666,0.0,True,4.196654988640887,3.0691,False,480.0508294804849,,
mp-756050,TaCuO3,20,Ta1 Cu1 O3,6.439122215980141,6.439122215980141,6.823248275111203,89.82698392250924,89.82698392250924,83.93754331949623,mono,C2/m,0.0009595,-8.664869109,-2.5028656634666673,0.033080160000000004,False,6.905862719148174,1.5612,False,281.3230122078083,,
mp-3102,TaCuS3,20,Ta1 Cu1 S3,3.511885389999999,9.52958893,11.89053138,90.0,90.0,90.0,ortho,Pnma,0.0,-6.740789458499998,-1.064546875466663,0.0,True,5.686581690665911,0.41800000000000004,False,397.93832257772516,"{'voigt': 42.982, 'reuss': 36.847, 'vrh': 39.914}","{'voigt': 27.13, 'reuss': 23.843, 'vrh': 25.486}"