mp_id,formula,sites,composition,a_edge (angstrom),b_edge (angstrom),c_edge (angstrom),alpha_ang (deg),beta_ang (deg),gamma_ang (deg),crystal_system,space_group,total_magnetisation (bohr),energy_per_atom (eV/atom),formation_energy (eV/atom),energy_above_hull (eV/atom),stable,density (g/cc),band_gap (eV),direct_bandgap,volume (cubic-angstrom),bulk_modulus (GPa),shear_modulus (GPa)
mp-770581,MgMnO3,20,Mg1 Mn1 O3,5.008101,5.227589,7.304405,90.0,90.0,90.0,ortho,Pnma,11.9977123,-7.416279121,-2.289005456586206,0.076736935,False,4.4195458038819755,0.6265000000000001,True,191.23146819271153,,
mp-770618,MgMnO3,10,Mg1 Mn1 O3,5.381283556522161,5.381250292429531,5.381132296497097,54.57638600701568,54.57836697538061,54.575891791176396,trig,R-3,5.9999998,-7.493016056,-2.365742391586207,0.0,True,4.389989282729596,0.0,False,96.25948702724264,,
mp-976446,MgMnO3,5,Mg1 Mn1 O3,3.73567,3.73567,3.73567,90.0,90.0,90.0,cubic,Pm-3m,3.0942055,-7.002803858,-1.875530193586207,0.49021219800000004,False,4.05295230583769,0.0,False,52.132135357475256,,
mp-1185896,MgMoO3,5,Mg1 Mo1 O3,4.002462,4.002462,4.002462,90.0,90.0,90.0,cubic,Pm-3m,1.937616499999999,-7.251489126,-1.787488498,0.640768282999999,False,4.357174622302637,0.0,False,64.1182487522513,,
mp-1342607,MgMoO3,20,Mg1 Mo1 O3,5.279528,5.403173,7.850493,90.0,90.0,90.0,ortho,Pnma,7.9999228,-7.832319317999999,-2.368318689999999,0.059938091000001005,False,4.990059310663976,0.067899999999999,False,223.94475808554958,,
mp-1206415,MgNi3B,5,Mg1 Ni3 B1,3.862388,3.862388,3.862388,90.0,90.0,90.0,cubic,Pm-3m,0.1910327,-5.395825264,-0.26577089883333205,0.043298927155301,False,6.086498227777272,0.0,False,57.6192627834772,,
mp-10700,MgNi3C,5,Mg1 Ni3 C1,3.78357767,3.78360493,3.7835918,90.0,90.0,90.0,cubic,Pm-3m,0.5675262,-5.770199084,-0.13028997449999902,0.0,True,6.511522035702708,0.0,False,54.164247253077946,"{'voigt': 168.29, 'reuss': 168.29, 'vrh': 168.29}","{'voigt': 63.165, 'reuss': 48.429, 'vrh': 55.797}"
mp-1017629,MgNiH3,5,Mg1 Ni1 H3,3.31395467,3.31395467,3.31395467,90.0,90.0,90.0,cubic,Pm-3m,7e-07,-3.771069215999999,-0.25184801374999904,0.005229102625000001,False,3.9248227925200103,0.0,False,36.39482964119878,"{'voigt': 109.663, 'reuss': 109.663, 'vrh': 109.663}","{'voigt': 26.818, 'reuss': 26.807, 'vrh': 26.812}"
mp-1016843,MgOsO3,5,Mg1 Os1 O3,3.916779,3.916779,3.916779,90.0,90.0,90.0,cubic,Pm-3m,1.1611625,-6.9130522459999995,-1.372708153999999,0.6486560359999991,False,7.25514550317498,0.0,False,60.0879244515128,"{'voigt': 174.473, 'reuss': 174.473, 'vrh': 174.473}","{'voigt': 16.282, 'reuss': 8.103, 'vrh': 12.192}"
mp-675651,MgPS3,10,Mg1 P1 S3,6.090788278909172,6.088793440948576,7.080204606687772,81.98286681119272,73.80104248894864,59.987994972805446,mono,C2/m,0.0,-4.944037280000002,-1.051832831428571,0.0,True,2.303994842602907,2.7986,False,218.3408527787415,,
mp-30943,MgPSe3,10,Mg1 P1 Se3,7.910538789456937,7.910538605178698,7.910539208579264,47.912447713283115,47.912441831547646,47.912442338755596,trig,R-3,0.0,-4.388379354000001,-0.8816437593348221,0.0,True,3.88560064823108,2.0382,False,249.71224882379616,,
mp-976722,MgPbO3,5,Mg1 Pb1 O3,3.980508,3.980508,3.980508,90.0,90.0,90.0,cubic,Pm-3m,2.0071721,-5.531777046,-1.494377025999999,0.5007348609999991,False,7.359026699548187,0.0,False,63.068935851015254,,
mp-1185941,MgReO3,5,Mg1 Re1 O3,3.922568,3.922568,3.922568,90.0,90.0,90.0,cubic,Pm-3m,0.0019014,-7.510970314,-1.7264768664999992,0.649838266071427,False,7.112386319166634,0.0,False,60.35474831531324,,
mp-1016929,MgRhO3,5,Mg1 Rh1 O3,3.900215,3.900215,3.900215,90.0,90.0,90.0,cubic,Pm-3m,1.2406907,-5.9975308599999995,-1.229798679999999,0.7168978250000001,False,4.903871935055412,0.0,False,59.32881099084245,,
mp-1016829,MgRuO3,5,Mg1 Ru1 O3,3.883346,3.883346,3.883346,90.0,90.0,90.0,cubic,Pm-3m,2.01969,-6.605691234,-1.455940119999999,0.6339806869999961,False,4.916010490277894,0.0,False,58.5623184227951,"{'voigt': 161.797, 'reuss': 161.797, 'vrh': 161.797}","{'voigt': 56.868, 'reuss': 29.966, 'vrh': 43.417}"
mp-769322,MgSO3,40,Mg1 S1 O3,11.9919,5.345052,8.093435278041705,80.11213057641088,90.0,90.0,mono,P2_1/c,0.0004819,-6.396531487,-2.2739889675000002,0.057395501428568,False,2.712901206739214,4.9221,True,511.06165747636624,,
mp-769347,MgSO3,20,Mg1 S1 O3,8.767642,4.354948999999999,6.509737818435163,87.33532097575157,90.0,90.0,mono,P2_1/c,2.1200000000000004e-05,-6.380499914,-2.2579573945,0.07342707442856801,False,2.792015009862193,5.0797,False,248.29017437019598,,
mp-769397,MgSO3,30,Mg1 S1 O3,7.80003466362195,7.80003466362195,7.800033920758358,109.407327821515,109.407327821515,109.40733519003936,trig,R-3,0.0011818,-6.405517005000001,-2.2829744855,0.048409983428567005,False,2.839734892336902,5.009399999999999,False,366.17673124008184,,
mp-1342178,MgSbO3,20,Mg1 Sb1 O3,7.950041,5.549974,5.565261855125237,88.1896285555884,90.0,90.0,mono,P2_1/m,0.0090651,-6.294361626500001,-2.1736907725,0.198446433708335,False,5.251981473191789,0.5657000000000001,True,245.4308162618618,,
mp-1347225,MgSbO3,20,Mg1 Sb1 O3,5.542728,5.46965,9.717378708273648,56.22988206831811,90.0,90.0,mono,P2_1/c,0.000335399999999,-6.334188657499999,-2.213517803499999,0.15861940270833602,False,5.263511708376719,1.997199999999999,False,244.89317614820442,,
mp-1232175,MgScS3,10,Mg1 Sc1 S3,6.850932395520189,6.850932395520189,6.7965153858889344,75.33910698875896,75.33910698875896,119.27273035160663,mono,C2/m,1.9931835,-5.549591523,-1.473987958499999,0.317098725499999,False,2.281295228076674,0.080099999999999,False,240.86843499652252,,
mp-1232226,MgScS3,30,Mg1 Sc1 S3,6.45091,6.450910054103142,17.54988,90.0,90.0,119.99999972256356,trig,R-3,3.4823792,-5.652508107,-1.576904542499999,0.214182141499999,False,2.606368895450113,0.0,False,632.4799367170557,,
mp-1232150,MgScSe3,10,Mg1 Sc1 Se3,7.264376125067589,7.264376125067589,6.7921466232290655,76.31356706547577,76.31356706547577,121.8543174309802,mono,C2/m,2.0600000000000003e-05,-5.028159294,-1.338024583406249,0.291540521249999,False,3.82343570141866,0.0,False,265.9173497134681,,
mp-1232171,MgScSe3,10,Mg1 Sc1 Se3,7.232177950087304,7.232177950087304,7.232178324483225,56.17814523735703,56.17814523735703,56.1781461117763,trig,R-3,0.049602799999999,-5.138133900000001,-1.44799918940625,0.18156591524999902,False,4.170007604380365,0.0,False,243.8167948310451,,