mp_id,formula,sites,composition,a_edge (angstrom),b_edge (angstrom),c_edge (angstrom),alpha_ang (deg),beta_ang (deg),gamma_ang (deg),crystal_system,space_group,total_magnetisation (bohr),energy_per_atom (eV/atom),formation_energy (eV/atom),energy_above_hull (eV/atom),stable,density (g/cc),band_gap (eV),direct_bandgap,volume (cubic-angstrom),bulk_modulus (GPa),shear_modulus (GPa)
mp-1184736,HoCuO3,5,Ho1 Cu1 O3,3.765209,3.765209,3.765209,90.0,90.0,90.0,cubic,Pm-3m,7.699999999999999e-06,-6.922426853999999,-2.214273023999998,0.25242995368750104,False,8.600762313082878,0.0,False,53.37861048446102,,
mp-1184778,HoErO3,5,Ho1 Er1 O3,4.246395,4.246395,4.246395,90.0,90.0,90.0,cubic,Pm-3m,0.0006508999999990001,-7.93530163,-3.133445371999998,0.9088813988750011,False,8.244907443646573,1.4474,True,76.57044471496806,,
mp-770415,HoErO3,30,Ho1 Er1 O3,6.378581954860892,6.378581954860892,12.674862,90.0,90.0,119.9999995318114,hex_,P6_3cm,3.0000000000000004e-05,-8.751239186666668,-3.9493829286666653,0.092943842208333,False,8.481566106297969,3.0794,False,446.6035317168509,,
mp-19785,HoFeO3,20,Ho1 Fe1 O3,5.25636467,5.60062622,7.60683986,90.0,90.0,90.0,ortho,Pnma,20.0039385,-8.4373758575,-2.855059119499998,0.012266279374999,False,7.9720353812052025,1.5675,True,223.93725501008694,,
mp-1212057,HoGa3Os,15,Ho1 Ga3 Os1,6.36697945,6.36697945,6.36697945,90.0,90.0,90.0,cubic,Pm-3m,0.311283,-5.464566115333332,-0.48269912283333005,0.0,True,10.891874349285198,0.0,False,258.1073336608895,,
mp-1104547,HoGa3Ru,15,Ho1 Ga3 Ru1,6.36198614,6.36198614,6.36198614,90.0,90.0,90.0,cubic,Pm-3m,1.7e-06,-5.1744852066666684,-0.5832111921666661,0.0,True,9.192647103461177,0.0,False,257.5005469793369,,
mp-755416,HoGaO3,20,Ho1 Ga1 O3,5.283774,5.59309,7.634112,90.0,90.0,90.0,ortho,Pnma,0.0004574,-7.631604461499999,-3.137672760999999,0.049537561350001,False,8.321581015458298,3.6066000000000003,True,225.6080378581869,,
mp-769045,HoGaO3,30,Ho1 Ga1 O3,6.013364411797956,6.013364682226466,11.636251790000344,89.99998584394025,89.99998602450447,119.99962402598256,hex_,P6_3cm,0.0,-7.662299399333334,-3.1683676988333342,0.018842623516666,False,7.728073081612191,2.883999999999999,False,364.40174897721613,,
mp-982558,HoGeO3,5,Ho1 Ge1 O3,3.904923,3.904923,3.904923,90.0,90.0,90.0,cubic,Pm-3m,0.0006552999999990001,-7.165676248,-2.352758180999998,0.698465031343752,False,7.963830434741589,0.0,False,59.543920169682785,"{'voigt': 142.29, 'reuss': 142.29, 'vrh': 142.29}","{'voigt': 65.212, 'reuss': 63.087, 'vrh': 64.149}"
mp-768267,HoInO3,30,Ho1 In1 O3,6.263086281918298,6.26307956059562,12.245594800000042,90.00000413258813,89.99999706364278,120.00011304166898,hex_,P6_3cm,0.0,-7.441156516666666,-3.001009271999999,0.009804144208334,False,7.849682515235159,1.9780000000000002,False,415.99330878356733,,
mp-776984,HoInO3,20,Ho1 In1 O3,5.52587,5.859970000000001,8.188104,90.0,90.0,90.0,ortho,Pnma,0.0,-7.3792483065,-2.9391010618333313,0.07171235437500001,False,8.210465327551114,2.9036,True,265.1425363558653,,
mp-770472,HoLuO3,20,Ho1 Lu1 O3,5.5760179999999995,5.849431,8.258771,90.0,90.0,90.0,ortho,Pnma,0.000163,-8.7859126255,-3.993262638833333,0.08240886899999801,False,9.564684279486546,4.9114,True,269.37247310946236,,
mp-1232139,HoMgS3,10,Ho1 Mg1 S3,6.967371060397817,6.967371060397817,6.649038955855801,76.857213423466,76.857213423466,118.93262828208628,mono,C2/m,0.005866,-5.23454461,-1.5058989734999981,0.355510138499999,False,3.752482828855108,0.0,False,252.61578467861935,,
mp-1232153,HoMgS3,30,Ho1 Mg1 S3,6.649669,6.649669006856582,18.000186,90.0,90.0,120.00000494053474,trig,R-3,4.2572474,-5.357413702333333,-1.628768065833331,0.23264104616666703,False,4.125653905932058,0.0,False,689.2990172597547,,
mp-1232140,HoMgSe3,10,Ho1 Mg1 Se3,7.340910381251769,7.340910381251769,6.888387621009215,76.39953925650693,76.39953925650693,119.02001150638407,mono,C2/m,1.1900000000000001e-05,-4.727275368,-1.384098585406248,0.32870152150000104,False,4.9199438188767335,0.0,False,287.6378925393125,,
mp-1232172,HoMgSe3,30,Ho1 Mg1 Se3,6.890471,6.890470810587185,19.278401,90.0,90.0,119.99999610853764,trig,R-3,1.436045,-4.843241417333333,-1.500064634739582,0.21273547216666702,False,5.35584539062991,0.0,False,792.6828548576237,,
mp-1181443,HoMnO3,20,Ho1 Mn1 O3,5.976331,13.074903,3.374556,90.0,90.0,90.0,ortho,Pnma,16.0053175,-8.4773038505,-2.756588296086206,0.31169474216666604,False,6.747421477720456,1.0638,True,263.68763077104825,,
mp-1193069,HoMnO3,30,Ho1 Mn1 O3,6.1174008426312065,6.1174008426312065,12.543845,90.0,90.0,125.39102333750115,ortho,Cmc2_1,24.0069763,-8.473091854,-2.752376299586205,0.315906738666667,False,6.973972823492783,0.49420000000000003,False,382.6825028512317,,
mp-19056,HoMnO3,30,Ho1 Mn1 O3,6.107331391561993,6.107331675126532,11.407969970000249,90.00001481671111,90.0000088569456,119.99970365074756,hex_,P6_3cm,24.0,-8.788998592666667,-3.068283038252873,0.0,True,7.242284250543945,0.0,False,368.5049195231798,,
mp-22081,HoMnO3,20,Ho1 Mn1 O3,5.312082,5.85681,7.477837,90.0,90.0,90.0,ortho,Pnma,16.0015293,-8.760399524,-3.039683969586206,0.028599068666666002,False,7.647609381155825,0.43510000000000004,False,232.6493802962633,,
mp-1079921,HoNiGe3,10,Ho1 Ni1 Ge3,10.912335903578452,10.912335903578452,4.06326307,90.0,90.0,158.60644816543146,ortho,Cmmm,0.0,-5.410823922000001,-0.5614439800000001,0.0,True,8.308467373460402,0.0,False,176.49478868122947,,
mp-18974,HoNiO3,20,Ho1 Ni1 O3,5.13100678,5.49720193,7.36043418,90.0,90.0,90.0,ortho,Pnma,4.0,-7.551576216000001,-2.507236383999999,0.0,True,8.690128359082701,0.0,False,207.60973411099758,,
mp-22664,HoRh3C,5,Ho1 Rh3 C1,4.14152903,4.14152903,4.14152903,90.0,90.0,90.0,cubic,Pm-3m,1.7e-06,-7.697408393999998,-0.5135546804999991,0.0,True,11.352645732989396,0.0,False,71.03659392846342,,
mp-1184833,HoRhO3,5,Ho1 Rh1 O3,3.937435,3.937435,3.937435,90.0,90.0,90.0,cubic,Pm-3m,0.000433599999999,-7.347871008,-1.986696937999998,0.6007430140000121,False,8.591476634200149,0.0,False,61.043607647563775,,
mp-1212108,HoRhO3,20,Ho1 Rh1 O3,5.20253763,5.7395467700000005,7.55043384,90.0,90.0,90.0,ortho,Pnma,2e-07,-7.948614022000005,-2.587439952000004,0.0,True,9.304718979809337,0.9605999999999991,True,225.4575253306886,,
mp-1206820,HoRu3C,5,Ho1 Ru3 C1,4.12808859,4.12808859,4.12808859,90.0,90.0,90.0,cubic,Pm-3m,4.4e-06,-8.557251255999997,-0.22734074049999803,0.0,True,11.333914362023787,0.0,False,70.34723407204834,,
mp-1207180,HoSbO3,5,Ho1 Sb1 O3,4.246295,4.246295,4.246295,90.0,90.0,90.0,cubic,Pm-3m,0.0001861,-6.577825057999999,-1.8637123139999971,1.076734552550001,False,7.258709678135883,0.0,False,76.56503528121013,,
mp-31121,HoScO3,20,Ho1 Sc1 O3,5.437512,5.733318,7.974802,90.0,90.0,90.0,ortho,Pnma,0.0004216,-9.11987672,-3.965070402999999,0.036679872249996005,False,6.889822697987972,4.476,True,248.61433611579346,,
mp-1189393,HoScS3,20,Ho1 Sc1 S3,6.369949,6.991898,9.53923,90.0,90.0,90.0,ortho,Pna2_1,1e-06,-15.937510601583332,-2.260544898270831,0.012900249583335001,False,4.785214720806305,1.7663000000000002,False,424.8585469564187,,
mp-1069461,HoSi3Ir,5,Ho1 Si3 Ir1,5.704555446153623,5.704555446153623,5.704555446153623,137.24596555839045,137.24596555839045,62.059822574604006,tet,I4mm,0.0,-6.713060411999987,-0.770646864999986,0.0,True,8.670169694395343,0.0,False,84.53909359239958,,
mp-1184813,HoSiO3,5,Ho1 Si1 O3,3.7096,3.7096,3.7096,90.0,90.0,90.0,cubic,Pm-3m,0.0051438,-7.757031606,-2.783655503999998,0.7570571732499971,False,7.839893360987574,0.0,False,51.048295860736005,,
mp-973977,HoSnO3,5,Ho1 Sn1 O3,4.351836,4.351836,4.351836,90.0,90.0,90.0,cubic,Pm-3m,0.961946699999999,-6.82203584,-2.131808972999998,0.8692622737187531,False,6.681846650800492,0.0,False,82.41714412638174,"{'voigt': 90.383, 'reuss': 90.383, 'vrh': 90.383}","{'voigt': 40.212, 'reuss': 28.967, 'vrh': 34.59}"
mp-755236,HoTiO3,20,Ho1 Ti1 O3,5.328055,5.692451,7.674495,90.0,90.0,90.0,ortho,Pnma,3.9895641,-9.103026565499999,-3.635615666166665,0.058383068499985,False,7.442029852766513,0.0,False,232.76506970381192,,
mp-1178178,HoTmO3,20,Ho1 Tm1 O3,5.606803,5.877711,8.333221,90.0,90.0,90.0,ortho,Pnma,0.000381,-8.747621375,-3.962808583,0.09600759112499901,False,9.235915198087328,4.4948,True,274.6226952689403,,
mp-1224261,HoUTe3,20,Ho1 U1 Te3,4.275994,11.856418,12.06082,90.0,90.0,90.0,ortho,Pnma,0.968378099999999,-39.059280383499996,-1.244269689499998,0.17079185375000303,False,8.535543006384469,0.0,False,611.4591174249016,,
mp-19024,HoVO3,20,Ho1 V1 O3,5.23261452,5.65391191,7.52519119,90.0,90.0,90.0,ortho,Pnma,8.0000001,-9.0064348285,-3.301341118499998,0.0,True,7.872520870621884,0.0,False,222.6308365086166,,
mp-1021667,IClO3,5,I1 Cl1 O3,4.141923,4.141923,4.141923,90.0,90.0,90.0,cubic,Pm-3m,1.7877781,-3.6013898600000003,0.041896597999999,0.6714004176764701,False,4.915834546789944,0.0,False,71.05686828778931,,
mp-1181075,INO3,20,I1 N1 O3,6.827385,7.429918,8.003712,90.0,90.0,90.0,ortho,Pna2_1,1.2909983,-5.184532285,-0.24329761000000003,0.42437145292856604,False,3.090528274621762,0.0,False,406.00358392797483,,
mp-754661,INO3,20,I1 N1 O3,4.342469,7.422848,12.096245,90.0,90.0,90.0,ortho,P2_12_12_1,2.39e-05,-5.5279650055000005,-0.5867303305,0.080938732428567,False,3.218138415931831,1.9762,False,389.90415996878465,,
mp-559377,IOF3,20,I1 O1 F3,5.05358546,5.44579822,11.09163673,90.0,90.0,90.0,ortho,P2_12_12_1,0.0,-4.089713605999999,-1.648431501499999,0.0,True,4.34973787356924,3.637,False,305.2507904627409,,
mp-1184913,InAsO3,5,In1 As1 O3,3.933194,3.933194,3.933194,90.0,90.0,90.0,cubic,Pm-3m,0.0007635999999990001,-5.649403552,-1.194767693833333,0.6154403055000001,False,6.488005852930813,0.0,False,60.84657034167246,,
mp-7027,InBO3,10,In1 B1 O3,5.882060383972727,5.882060642712598,5.88206128879219,48.68871996966566,48.68872111806442,48.68872217031944,trig,R-3c,0.0,-7.315081527000001,-2.458591821166667,0.0,True,5.473290410538121,2.6556,False,105.35335310154868,,
mp-545379,InBiO3,5,In1 Bi1 O3,4.172779,4.172779,4.172779,90.0,90.0,90.0,cubic,Pm-3m,4.4e-06,-5.620489452,-1.321871238333334,0.496026063000001,False,8.497249279925953,0.045199999999999005,False,72.65678089350268,,
mp-556892,InBiO3,20,In1 Bi1 O3,5.710462,6.054819,8.418455,90.0,90.0,90.0,ortho,Pna2_1,0.000395599999999,-6.087572438,-1.7889542243333332,0.028943077,False,8.484176543805171,2.7352,False,291.07493270155646,,
mp-561102,InBiO3,20,In1 Bi1 O3,5.678355,6.09561,8.203608,90.0,90.0,90.0,ortho,Pnma,0.0004888,-6.0765920465,-1.7779738328333332,0.039923468500001,False,8.697008401781114,2.388399999999999,False,283.9517915160877,,
mp-1078776,InBiS3,10,In1 Bi1 S3,3.90412981,6.593652709020838,9.90746649342325,88.60311320838697,90.0,90.0,mono,P2_1/m,0.0,-21.600602936,-0.563430661687499,0.015075937249999002,False,5.47063466457686,1.379999999999999,True,254.96692474459132,,
mp-1223842,InBiSe3,5,In1 Bi1 Se3,10.256907551873761,10.256907551873761,10.256907053880228,23.17547089484211,23.17547089484211,23.175472224424308,trig,R3m,0.0004279,-25.338113270333334,-0.535004306770835,0.025377894833333,False,6.346121737459678,0.823399999999999,False,146.7082456838383,,
mp-1068786,InCo3N,5,In1 Co3 N1,3.82707053,3.82712609,3.82710757,90.0,90.0,90.0,cubic,Pm-3m,3.3569246,-14.306561777999999,-0.024554889749998,0.022525376999999003,False,9.053719845077978,0.0,False,56.0544255431201,,
mp-755167,InCoO3,20,In1 Co1 O3,5.124142,5.313833,7.435169,90.0,90.0,90.0,ortho,Pnma,0.00022669999999900002,-6.48039367,-1.533098974333332,0.078910866214286,False,7.275312124108903,0.0,False,202.4509888295771,,
mp-1224030,InCuO3,5,In1 Cu1 O3,6.044282655277548,6.044282655277548,6.044282368232394,33.1383975719867,33.1383975719867,33.1383952796915,trig,R3m,0.0731777,-5.712232692,-1.371780006333332,0.051192436625000004,False,6.3993156993368725,0.0,False,58.73804230981655,,
mp-975443,InCuO3,5,In1 Cu1 O3,3.787341,3.787341,3.787341,90.0,90.0,90.0,cubic,Pm-3m,0.0027112,-5.246440988,-0.905988302333332,0.5169841406250001,False,6.919102679006056,0.0,False,54.3254369445951,"{'voigt': 160.872, 'reuss': 160.872, 'vrh': 160.872}","{'voigt': 57.025, 'reuss': 54.952, 'vrh': 55.989}"
mp-617426,InFeBr3,20,In1 Fe1 Br3,3.721589,9.207578,15.284974,90.0,90.0,90.0,ortho,Pnma,16.0012161,-3.955092827,-0.7270859153333321,0.26413674600000403,False,5.204169873072749,0.0,False,523.7674680696949,,
mp-21094,InFeO3,10,In1 Fe1 O3,3.397549,3.397548105155393,12.360357,90.0,90.0,119.9999989761698,hex_,P6_3/mmc,10.0006204,-7.017711596000001,-1.8030960023333331,0.047483367999999006,False,5.877028897425036,1.2138,False,123.56429457364851,,
mp-8098,InGaO3,10,In1 Ga1 O3,3.32960934,3.329608836152431,12.06608203,90.0,90.0,119.9999950707153,hex_,P6_3/mmc,0.0,-6.255757647,-2.129527090833333,0.002004937499999,False,6.666407292106624,1.341999999999999,False,115.84663498527046,,
mp-1224212,InGaS3,25,In1 Ga1 S3,6.756379,6.757355806760882,15.581593596606028,81.41070760470295,85.32545574966683,60.011316496385284,tri,P1,0.002694599999999,-12.328823312266666,-0.7035505969541641,0.076010365733333,False,3.826015386515799,0.045199999999999005,True,609.2148727942556,,
mp-1224507,InGaS3,10,In1 Ga1 S3,3.935248226732463,3.935248226732463,18.888809,90.0,90.0,120.00000381183045,trig,P3m1,0.6380464,-12.106327745666666,-0.481055030354167,0.298505932333332,False,3.680423091666479,0.0,False,253.32581814116182,,
mp-19885,InGaS3,10,In1 Ga1 S3,10.08237472212519,10.08237472212519,6.233365,90.0,90.0,158.23496640584932,ortho,Cmc2_1,5.64e-05,-12.387655243666668,-0.7623825283541671,0.017178434333331,False,3.968148565783092,1.6761,False,234.95748088706998,,
mp-504951,InGaS3,30,In1 Ga1 S3,6.773408573625546,6.772367764900579,18.086912070138485,89.99981152198471,90.00044285319898,119.98715676706951,hex_,P6_1,0.0,-12.404833678,-0.7795609626874991,0.0,True,3.892238095678459,2.0936999999999992,False,718.6195971699804,,
mp-504952,InGaSe3,30,In1 Ga1 Se3,7.058579736792912,7.059472484670402,18.97877713021404,90.00022760284732,89.9994535171036,119.92912925162352,hex_,P6_1,0.0,-16.09676530133333,-0.7055558967708331,0.0,True,5.122929557129563,1.3166,True,819.5928046815503,,
mp-998233,InGeCl3,5,In1 Ge1 Cl3,5.549692736190896,5.549692736190896,5.647701176184519,89.7824471409856,89.7824471409856,85.2320761941942,mono,Cm,5.1500000000000005e-05,-11.888664006499997,-0.907087075999996,0.029272844750002,False,2.814671219401957,2.2217000000000002,True,173.3398215635561,,
mp-998569,InGeCl3,10,In1 Ge1 Cl3,7.8265507098205145,7.8265507098205145,7.826550690749086,60.531045879195574,60.531045879195574,60.531043737407884,trig,R3c,0.0006271,-11.898607351499999,-0.9170304209999981,0.019329499750000003,False,2.844327916870299,3.2685,True,343.0649497460598,,
mp-1070713,InNi3N,5,In1 Ni3 N1,3.83985571,3.83985571,3.83985571,90.0,90.0,90.0,cubic,Pm-3m,3.0000000000000004e-05,-13.672549682,-0.142051175749998,0.0,True,8.94270254997529,0.0,False,56.61672131196684,,
mp-1223697,InNi3Sb,5,In1 Ni3 Sb1,4.181508915065111,4.181508915065111,5.225062,90.0,90.0,120.01200712445541,hex_,P-6m2,0.0008933999999990001,-16.97006672733333,-0.124055209333329,0.062917150666667,False,8.661717232745277,0.0,False,79.11076335560023,,
mp-1184799,InOsO3,5,In1 Os1 O3,3.973267,3.973267,3.973267,90.0,90.0,90.0,cubic,Pm-3m,0.0037362999999990005,-6.90046919,-1.1343843523333321,0.46717973299999405,False,9.346249880328054,0.0,False,62.72537273464162,,
mp-675295,InPF3,5,In1 P1 F3,5.179715066451532,5.179715066451532,5.179714937745995,73.04333639509571,73.04333639509571,73.04333687373018,trig,R3,0.9999907,-9.76263630407143,-1.572310240166666,0.6396171793333311,False,2.718575941579155,1.2253,False,123.86473498463428,,
mp-998512,InPbCl3,10,In1 Pb1 Cl3,7.079296789892152,7.079296789892152,10.6529262,90.0,90.0,144.79730391374946,ortho,Cmcm,0.0,-20.587462945,-1.123254708499996,0.026258526750002002,False,4.622519918076801,2.532199999999999,False,307.7701151491672,,
mp-998535,InPbCl3,5,In1 Pb1 Cl3,5.7595891828514985,5.7595891828514985,5.757001592790904,89.833630793831,89.833630793831,88.85990247730508,mono,Cm,4.4100000000000015e-05,-20.59558328675,-1.131375050249997,0.018138185000001,False,3.725507596321793,2.9011,False,190.93686574017815,,
mp-20796,InPt3C,5,In1 Pt3 C1,4.258586,4.258586,4.258586,90.0,90.0,90.0,cubic,Pm-3m,0.00023779999999900002,-5.783079642,0.257168197166667,0.5390159525,False,15.310241680758361,0.0,False,77.23181943025375,,
mp-1184773,InPtO3,5,In1 Pt1 O3,4.029858,4.029858,4.029858,90.0,90.0,90.0,cubic,Pm-3m,0.0014355,-5.468581876,-0.733743860333332,0.768916963375002,False,9.081170067199807,0.0,False,65.44390862037989,,
mp-1105819,InRhO3,20,In1 Rh1 O3,5.340653,5.498795,7.866305,90.0,90.0,90.0,ortho,Pnma,3.7300000000000005e-05,-6.4651187425,-1.471645816833333,0.073917504749995,False,7.640177340224572,0.32219999999999904,True,231.0110061819039,,
mp-1203220,InRhO3,40,In1 Rh1 O3,7.708572,7.708579,10.791626610820863,45.772662454444436,90.0,90.0,mono,P2_1/c,0.000383,-6.498414126750001,-1.5049412010833332,0.040622120499994,False,7.681880256535902,1.0391,True,459.51381584522665,,
mp-1212207,InRhO3,20,In1 Rh1 O3,5.341129,5.529847,8.244579,90.0,90.0,90.0,ortho,Pnma,0.001141799999999,-6.2046191825,-1.211146256833333,0.33441706474999505,False,7.248054405493056,0.0,False,243.50880333291278,,
mp-1184765,InSbO3,5,In1 Sb1 O3,4.106234,4.106234,4.106234,90.0,90.0,90.0,cubic,Pm-3m,0.012849399999999001,-5.761112204,-1.4147006043333321,0.458201840500004,False,6.825218971911616,0.0,False,69.2358588741692,,
mp-21365,InSbS3,20,In1 Sb1 S3,3.8395774,9.40747945,13.5820799,90.0,90.0,90.0,ortho,Pnma,0.0,-14.999579464000002,-0.5215987926875011,0.0,True,4.505408610764415,1.476099999999999,False,490.59485125450334,,
mp-1212011,InSbSe3,20,In1 Sb1 Se3,4.08704,9.99368,14.103916,90.0,90.0,90.0,ortho,Pnma,0.005306799999999,-18.722329686583336,-0.47841232602083605,0.007178701833332001,False,5.459042909196263,1.102,False,576.0683830272766,,
mp-1184751,InSiO3,5,In1 Si1 O3,3.6630190000000002,3.6630190000000002,3.6630190000000002,90.0,90.0,90.0,cubic,Pm-3m,0.0037086999999990005,-6.668208518,-2.062533560333333,0.565854375222222,False,6.449727694958696,0.0,False,49.14932005240002,,
mp-567931,InSiTe3,10,In1 Si1 Te3,7.120395360000574,7.120395164700814,7.48873665,90.0,90.0,119.99999223675391,trig,P-31m,0.0,-21.827001367,-0.306195786,0.0,True,5.309731157302806,0.48160000000000003,False,328.8118261873687,,
mp-574250,InSiTe3,5,In1 Si1 Te3,7.38902717097596,7.38902717097596,5.196314,90.0,90.0,119.99999257712975,trig,P3,0.8895683,-21.478221702,0.042583879000000005,0.348779665000002,False,3.55295239163909,0.0,False,245.69740963954564,,
mp-1224379,InSnBr3,40,In1 Sn1 Br3,12.549992847671469,12.063253531583136,11.935474162090502,63.057239035556066,58.96863429594908,57.974126668494876,ortho,Fmm2,0.0021586,-3.35072066075,-1.014803620083333,0.063128857249997,False,4.942728266965806,1.5767,True,1271.902423816932,,
mp-685272,InSnBr3,80,In1 Sn1 Br3,12.059662,12.227977425123504,18.036378868846178,90.38692803093592,89.98107970167054,94.976033821109,tri,P1,0.0007134999999990001,-3.370163891374999,-1.034246850708332,0.043685626624998,False,4.745273500804596,2.0441,False,2649.6546772093625,,
mp-998398,InSnBr3,5,In1 Sn1 Br3,5.932798,5.9596259987469855,5.985729786045307,85.06332740221649,87.2160285126423,88.38034628739823,tri,P1,0.0004384,-3.383548804,-1.047631763333333,0.030300713999997002,False,3.732407260665499,1.0975,True,210.5433445485441,,
mp-998555,InSnBr3,10,In1 Sn1 Br3,8.259506711230943,8.259506711230943,8.259505922624308,59.35077767084136,59.35077767084136,59.35077676531949,trig,R3c,0.000299699999999,-3.393821434,-1.057904393333333,0.020028083999997,False,4.00386388952432,1.7551,True,392.5375734843699,,
mp-1224255,InSnCl3,40,In1 Sn1 Cl3,11.978611422255293,11.573598280727778,11.431990590316369,62.75254982488379,59.20202011853308,58.045430056583136,ortho,Fmm2,0.003298799999999,-3.7178246429999993,-1.254953527333332,0.047382566,False,4.044113454958426,1.8707999999999991,False,1116.478354062945,,