mp_id,formula,sites,composition,a_edge (angstrom),b_edge (angstrom),c_edge (angstrom),alpha_ang (deg),beta_ang (deg),gamma_ang (deg),crystal_system,space_group,total_magnetisation (bohr),energy_per_atom (eV/atom),formation_energy (eV/atom),energy_above_hull (eV/atom),stable,density (g/cc),band_gap (eV),direct_bandgap,volume (cubic-angstrom),bulk_modulus (GPa),shear_modulus (GPa)
mp-998198,RbCaBr3,5,Rb1 Ca1 Br3,5.743071220716751,5.743071220716751,5.740425791216276,89.93769462248768,89.93769462248768,90.02605915489691,mono,Cm,2.6600000000000003e-05,-3.839356738,-2.259962026499999,0.024241247500006002,False,3.203440367813513,4.0722,False,189.3354570837068,,
mp-998536,RbCaBr3,20,Rb1 Ca1 Br3,4.37789821,9.69260383,16.09469918,90.0,90.0,90.0,ortho,Pnma,0.0,-3.863597985500004,-2.284203274000004,0.0,True,3.552381521262567,4.2996,True,682.9501196873715,,
mp-2795318,RbCaCl3,5,Rb1 Ca1 Cl3,5.429531644002095,5.429531644002095,5.42888147627645,89.99169432722101,89.99169432722101,90.00111079882562,tet,P4mm,0.0,-4.3093358120000005,-2.6029870255,0.010251580000002002,False,2.406155813063203,4.9651,False,160.04241206716253,,
mp-998197,RbCaCl3,5,Rb1 Ca1 Cl3,5.377697661251185,5.377491183898692,5.377211408572288,90.0112295925565,90.04305037344692,90.002259856831,mono,Cm,0.0,-4.306492394000002,-2.600143607500002,0.013094997999999,False,2.476428343194014,4.9577,False,155.50095814013636,,
mp-998324,RbCaCl3,10,Rb1 Ca1 Cl3,7.507942488252752,7.507942488252752,7.5079427090856115,60.88403643280542,60.88403643280542,60.884047529748315,trig,R3c,0.0,-4.319587392000002,-2.613238605500002,0.0,True,2.523313970760944,5.3844,False,305.2231982181201,,
mp-3654,RbCaF3,5,Rb1 Ca1 F3,4.45428814,4.45428814,4.45428814,90.0,90.0,90.0,cubic,Pm-3m,0.0,-5.462588439999999,-3.718474268999998,0.0,True,3.42984602336079,6.3971,False,88.37611823763214,"{'voigt': 48.191, 'reuss': 48.191, 'vrh': 48.191}","{'voigt': 28.028, 'reuss': 24.777, 'vrh': 26.403}"
mp-23949,RbCaH3,5,Rb1 Ca1 H3,4.52097295,4.52097295,4.52097295,90.0,90.0,90.0,cubic,Pm-3m,0.0,-3.11397772,-0.47965106625000004,0.017971985999999003,False,2.310424238625596,3.2736,True,92.40505411028691,,
mp-998325,RbCaI3,5,Rb1 Ca1 I3,6.210137720178032,6.210137720178032,6.207693176575337,89.95899441764591,89.95899441764591,89.94564297485023,mono,Cm,0.0033579,-3.280889729999999,-1.769255370499999,0.045907286000002004,False,3.5114763361956562,3.4334,False,239.40448846704473,,
mp-998592,RbCaI3,20,Rb1 Ca1 I3,4.69371084,10.46897138,17.37418299,90.0,90.0,90.0,ortho,Pnma,0.0,-3.326797016,-1.8151626565,0.0,True,3.938739795598335,3.598499999999999,True,853.7382408155224,,
mp-975382,RbCaO3,5,Rb1 Ca1 O3,4.616624,4.616624,4.616624,90.0,90.0,90.0,cubic,Pm-3m,3.0,-5.050003676,-1.484000282499999,0.42176365200000104,False,2.928769450282601,0.0,False,98.39510984595381,"{'voigt': 40.141, 'reuss': 40.141, 'vrh': 40.141}","{'voigt': 15.98, 'reuss': 2.444, 'vrh': 9.212}"
mp-27400,RbCdBr3,20,Rb1 Cd1 Br3,4.2474237,9.55090906,15.79276485,90.0,90.0,90.0,ortho,Pnma,0.0,-2.930630723999999,-1.560353950499999,0.0,True,4.536791354845082,2.7536,False,640.6612618927102,,
mp-23390,RbCdCl3,20,Rb1 Cd1 Cl3,4.05372776,9.04405641,15.05258048,90.0,90.0,90.0,ortho,Pnma,0.0,-3.317302857,-1.820072008499999,0.0,True,3.661790227997025,3.5562,False,551.8598510355168,,
mp-6951,RbCdF3,5,Rb1 Cd1 F3,4.42498073,4.42498073,4.42498073,90.0,90.0,90.0,cubic,Pm-3m,0.0,-4.233329820000002,-2.698333587000001,0.0,True,4.884729257302883,3.1745,False,86.64313367399816,"{'voigt': 55.222, 'reuss': 55.222, 'vrh': 55.222}","{'voigt': 24.357, 'reuss': 21.32, 'vrh': 22.838}"
mp-1209203,RbCdN3,5,Rb1 Cd1 N3,4.58767,4.58767,4.58767,90.0,90.0,90.0,cubic,Pm-3m,5.7175486,-3.7247870119999993,1.6662884875000001,1.7784519349999992,False,4.125730369617648,0.0,False,96.55538772430367,,
mp-975380,RbCdO3,5,Rb1 Cd1 O3,4.465707,4.465707,4.465707,90.0,90.0,90.0,cubic,Pm-3m,2.977420399999999,-4.075698602,-0.7188131464999991,0.40300357000000003,False,4.584545925800003,0.0,False,89.05753605405575,"{'voigt': 38.168, 'reuss': 38.168, 'vrh': 38.168}","{'voigt': 6.354, 'reuss': -12.061, 'vrh': -2.852999999999999}"
mp-23011,RbClO3,5,Rb1 Cl1 O3,4.597086472117965,4.597086472117965,4.597086451235173,83.96766269648619,83.96766269648619,83.96766038572098,trig,R3m,0.0002745,-4.6788607980000005,-1.1442700485,0.065171114000001,False,2.932751092377686,5.3288,True,95.64282469113215,,
mp-1206319,RbCoBr3,10,Rb1 Co1 Br3,7.428611311492985,7.427502151242703,6.244587670000789,89.99999800910774,90.00002782425304,119.99551734915364,hex_,P6_3/mmc,6.0090214,-3.833192163999999,-1.228234084499999,0.016217684000002,False,4.274975768801786,0.0,False,298.40385942819324,,
mp-1209410,RbCoBr3,30,Rb1 Co1 Br3,13.070148693493774,13.070148693493774,6.209557,90.0,90.0,120.00000351037922,trig,P-3c1,2.9058598,-3.698737849999999,-1.093779770499999,0.150671998000001,False,4.165882888209415,0.0,False,918.6546784473605,,
mp-1209412,RbCoBr3,30,Rb1 Co1 Br3,13.055525847780242,13.055525847780242,6.230356,90.0,90.0,119.99999922861952,hex_,P6_3cm,3.983096299999999,-3.653978307333333,-1.049020227833333,0.195431540666668,False,4.161281658578614,0.0,False,919.6704571121459,,
mp-1209578,RbCoBr3,30,Rb1 Co1 Br3,12.915757534829964,12.915757534829964,6.243637,90.0,90.0,119.99999761722053,trig,P3c1,1.806614199999999,-3.785360496999999,-1.1804024175,0.064049351000001,False,4.242787622991495,0.0,False,902.0031510365924,,
mp-27707,RbCoCl3,10,Rb1 Co1 Cl3,7.0176217100000775,7.017620040008383,5.94230516,90.0,90.0,119.9999895290196,hex_,P6_3/mmc,5.9996808,-4.2572123569999984,-1.525300202499999,0.0025010662500050003,False,3.286032947975301,0.0,False,253.43432316738318,,
mp-541814,RbCoF3,30,Rb1 Co1 F3,6.013009642149761,6.013009642149761,14.722671,90.0,90.0,119.99999606267362,hex_,P6_3/mmc,18.0000018,-5.392403945,-2.622726406,0.0,True,4.352618193094321,0.0,False,461.0001393651109,,
mp-30027,RbCrCl3,20,Rb1 Cr1 Cl3,7.057032761136126,7.057032761136126,12.749919151317268,86.08378262795462,86.08378262795462,59.57859919545857,mono,C2/c,15.9999998,-4.975830422499999,-1.739992117999999,0.019588501499998003,False,2.966949292635343,0.5095000000000001,False,545.8501792217413,,
mp-568864,RbCrCl3,20,Rb1 Cr1 Cl3,7.185303509305991,7.185303509305991,12.821956065639323,87.60145923485082,87.60145923485082,59.62082835365948,mono,C2,15.9995314,-4.973847344,-1.7380090395,0.021571579999997002,False,2.839136310673362,0.399,False,570.423405540088,,
mp-568887,RbCrCl3,10,Rb1 Cr1 Cl3,6.312599655916808,7.101332,7.135485875478698,60.15820964385326,88.02101879877608,90.0,mono,C2/m,8.0000419,-4.967128819,-1.7312905145,0.028290104999997002,False,2.920825608196409,0.11949999999999901,False,277.2349363450797,,
mp-1206325,RbCrF3,5,Rb1 Cr1 F3,4.414319,4.414319,4.098647,90.0,90.0,90.0,tet,P4/mmm,3.9988478,-6.16967071,-2.896067021,0.010353353749995001,False,4.043053107790656,0.9717000000000001,False,79.86710531326781,,
mp-27442,RbCrI3,20,Rb1 Cr1 I3,8.111664760223082,8.111664760223082,14.420916416284577,84.76938546381862,84.76938546381862,60.11998986235853,mono,C2,16.0062499,-4.0415208085,-1.000396931,0.06356557261111101,False,4.206712450178756,0.168499999999999,False,818.1720779552074,,
mp-676553,RbCrI3,10,Rb1 Cr1 I3,8.084576416833537,8.084576416833537,7.02522113169123,85.40497227807404,85.40497227807404,60.17367566910961,mono,C2/m,7.9993608,-4.037549546,-0.9964256685,0.067536835111111,False,4.338747844534471,0.0,False,396.6368627596618,,
mp-1076360,RbCrO3,5,Rb1 Cr1 O3,3.94693,3.94693,3.94693,90.0,90.0,90.0,cubic,Pm-3m,0.999684799999999,-6.653205036,-1.5577121245,0.508016842750003,False,5.008711280005005,0.0,False,61.486287631130566,,
mp-998196,RbCuBr3,5,Rb1 Cu1 Br3,5.146886029768255,5.153862302056752,5.132402376258366,90.0134816168938,90.0583195903221,90.02353057428243,cubic,Pm-3m,0.2634764,-3.198902856000001,-1.2007867865,0.013992915999998001,False,4.741269884208399,0.0,False,136.14377431777643,"{'voigt': 30.662, 'reuss': 30.662, 'vrh': 30.662}","{'voigt': 13.184, 'reuss': 13.128, 'vrh': 13.156}"
mp-1232302,RbCuCl3,10,Rb1 Cu1 Cl3,6.936351627585535,6.936351627585535,6.936351627585535,117.60990333182423,117.60990333182423,94.19215198372575,tet,I4/mcm,0.0,-3.6097855119999993,-1.484715367499999,0.000887255999999,False,3.478712353594448,0.0,False,243.80084804014547,,
mp-23055,RbCuCl3,20,Rb1 Cu1 Cl3,6.22716955,7.04645449,11.80800118,90.0,90.0,90.0,ortho,Pbcn,3.8882162,-3.610672767999999,-1.485602623499999,0.0,True,3.273753661866938,0.185899999999999,True,518.1287961724032,,
mp-568857,RbCuCl3,20,Rb1 Cu1 Cl3,6.992945,7.037086206139939,12.565442494125426,90.53775335888821,90.0,119.79272299375367,mono,C2/c,3.9999218,-3.587514783999999,-1.4624446395000001,0.023157983999999,False,3.161144977429248,0.0,False,536.5859699252209,,
mp-569526,RbCuCl3,10,Rb1 Cu1 Cl3,7.060612555758602,7.060612555758602,5.974634,90.0,90.0,120.00000520757827,hex_,P6_3/mmc,1.999104899999999,-3.559780761,-1.434710616499999,0.050892006999999004,False,3.287964010458448,0.0,False,257.94474002645865,"{'voigt': -507044.679, 'reuss': 36226.062, 'vrh': -235409.309}","{'voigt': -649552.251, 'reuss': -1636.228, 'vrh': -325594.239}"
mp-571305,RbCuCl3,20,Rb1 Cu1 Cl3,7.048828326233871,7.048828326233871,12.58885774502123,89.36597371970689,89.36597371970689,59.518520645108204,mono,C2,3.9998867,-3.5878744475,-1.462804303,0.022798320499999,False,3.146992935598406,0.0,False,538.9989995212916,,
mp-554601,RbCuF3,5,Rb1 Cu1 F3,4.06660228,4.07169097,4.07169097,90.0,90.0,90.0,cubic,Pm-3m,0.9999962,-4.469908135,-2.307072605999999,0.031564307,False,5.074041257665589,0.0,False,67.41884646593466,"{'voigt': 69.734, 'reuss': 69.734, 'vrh': 69.734}","{'voigt': 32.02, 'reuss': 30.989, 'vrh': 31.504}"
mp-8858,RbCuF3,10,Rb1 Cu1 F3,5.787292199146458,5.78540738503452,5.785407800605913,94.27056081482041,117.5560464894864,117.55605971748506,tet,I4/mcm,0.0,-4.501472442000001,-2.338636913,0.0,True,4.8308806611218085,0.0,False,141.6246984801055,,
mp-975364,RbCuO3,5,Rb1 Cu1 O3,4.046069,4.046069,4.046069,90.0,90.0,90.0,cubic,Pm-3m,2.175723999999999,-4.643878798,-0.6591540465000001,0.42699596699999903,False,4.939032944011462,0.0,False,66.23687800780135,"{'voigt': 84.711, 'reuss': 84.711, 'vrh': 84.711}","{'voigt': 32.21, 'reuss': 31.775, 'vrh': 31.992}"
mp-1219609,RbCuS3,5,Rb1 Cu1 S3,4.181383999999999,3.480629,7.901201,90.0,90.0,90.0,ortho,Pmm2,0.029463999999999,-3.916825926,-0.417862036999999,0.36558434071428203,False,3.540904811756387,0.0,False,114.99286581277347,,
mp-1209279,RbDyBr3,20,Rb1 Dy1 Br3,7.700161,8.235993,11.258521,90.0,90.0,90.0,ortho,Pnma,0.0735224,-3.9840355315,-1.882085690333332,0.129484077055554,False,4.536769756794013,0.0,False,713.9981998680418,,
mp-1206194,RbDyI3,10,Rb1 Dy1 I3,8.283960585009865,8.283960585009865,11.75734,90.0,90.0,148.6470907432236,ortho,Cmcm,0.960560499999999,-3.496296397,-1.462106907833332,0.09718622155555601,False,4.973521520125187,0.0,False,419.80303308955274,,
mp-1209272,RbDyI3,20,Rb1 Dy1 I3,8.229636,8.726612,11.982103,90.0,90.0,90.0,ortho,Pnma,1.8566759,-3.4674868895,-1.433297400333332,0.125995729055556,False,4.852664060458937,0.0,False,860.5167772884139,,
mp-975386,RbDyO3,5,Rb1 Dy1 O3,4.5191479999999995,4.5191479999999995,4.5191479999999995,90.0,90.0,90.0,cubic,Pm-3m,1.9958478,-6.374110226,-2.285551702833332,0.25524798800000004,False,5.325019800143493,0.0,False,92.29319774023979,,
mp-975361,RbErO3,5,Rb1 Er1 O3,4.494243,4.494243,4.494243,90.0,90.0,90.0,cubic,Pm-3m,1.9955363,-6.397034038,-2.3186068585,0.24821699099999903,False,5.501092898164923,0.0,False,90.77570949035696,,
mp-1206801,RbEuCl3,5,Rb1 Eu1 Cl3,5.655825,5.655825,5.655825,90.0,90.0,90.0,cubic,Pm-3m,6.9977156,-5.910670828,-2.547819634500001,0.038372389999999,False,3.155407535131539,0.45419999999999905,True,180.92054600923964,,
mp-1206518,RbFeCl3,5,Rb1 Fe1 Cl3,4.93010805,4.93013288,4.93012564,90.0,90.0,90.0,cubic,Pm-3m,4.0000018,-4.547405425999999,-1.5481723734999981,0.070703025,False,3.432042115548971,0.0,False,119.83206666721149,,
mp-1206560,RbFeCl3,10,Rb1 Fe1 Cl3,6.979655648673865,6.979655648673865,5.872783,90.0,90.0,119.99999666981421,hex_,P6_3/mmc,8.0,-4.5150085220000005,-1.515775469499999,0.10309992899999901,False,3.319808711307963,0.360199999999999,False,247.76650425325687,,
mp-554465,RbFeF3,5,Rb1 Fe1 F3,4.220695,4.220695,4.220695,90.0,90.0,90.0,cubic,Pm-3m,4.0002245,-5.528833986,-2.491835549,0.266142958499999,False,4.379630216254737,0.0,False,75.18858462943221,,
mp-975322,RbFeO3,5,Rb1 Fe1 O3,4.045439,4.045439,4.045439,90.0,90.0,90.0,cubic,Pm-3m,5.4673062,-6.023394786,-1.164507126499999,0.266845015666669,False,4.74818876599991,0.0,False,66.20594225067894,,
mp-975308,RbGdO3,5,Rb1 Gd1 O3,4.472071,4.472071,4.472071,90.0,90.0,90.0,cubic,Pm-3m,5.003271,-8.289154804,-2.3090469385,0.176935758499999,False,5.397491439003579,0.0,False,89.4388218566224,,
mp-1120721,RbGeBr3,10,Rb1 Ge1 Br3,7.45264327,6.152178917697321,8.145619222504632,74.1795580982625,90.0,90.0,mono,P2_1/m,0.0,-3.5211805965,-1.418300289999999,0.0,True,3.676821054512166,3.123799999999999,False,359.3295999849223,,
mp-28558,RbGeBr3,20,Rb1 Ge1 Br3,7.62829121,8.26688561,11.30344188,90.0,90.0,90.0,ortho,Pna2_1,0.0,-3.519707474,-1.4168271675000002,0.0014731224999990002,False,3.706940248343305,1.9851,True,712.8200349732962,,
mp-1120729,RbGeCl3,20,Rb1 Ge1 Cl3,7.29946596,7.98976514,10.8443874,90.0,90.0,90.0,ortho,Pna2_1,0.0,-3.9022825035000013,-1.672448122000001,0.018935773500001002,False,2.777474781767195,2.5704000000000002,True,632.4557199965224,,
mp-27369,RbGeCl3,10,Rb1 Ge1 Cl3,5.834404792252248,6.98791184,7.952852244545973,90.0,105.87713937038693,90.0,mono,P2_1/m,0.0,-3.9212182770000013,-1.691383895500001,0.0,True,2.816279614913085,3.7529,False,311.8706330814683,,
mp-567855,RbGeI3,20,Rb1 Ge1 I3,4.69061112,10.30008669,16.90456321,90.0,90.0,90.0,ortho,P2_12_12_1,0.0,-3.065395050999998,-1.030275096499998,0.005060806333333,False,4.382072002010617,2.1987,False,816.7220152541115,,
mp-571458,RbGeI3,5,Rb1 Ge1 I3,5.91458197,5.91458197,5.91458197,90.0,90.0,90.0,cubic,Pm-3m,0.0,-3.057070348000002,-1.021950393500002,0.013385509333329002,False,4.3243577462647504,0.554,True,206.9055618468492,"{'voigt': 18.094, 'reuss': 18.094, 'vrh': 18.094}","{'voigt': 10.882, 'reuss': 9.454, 'vrh': 10.168}"
mp-1186885,RbGeO3,5,Rb1 Ge1 O3,3.948621,3.948621,3.948621,90.0,90.0,90.0,cubic,Pm-3m,1.000886,-5.576472036,-1.4869830475,0.419926687666665,False,5.559085831884512,0.0,False,61.565349989323494,,
mp-7482,RbHgF3,5,Rb1 Hg1 F3,4.54921913,4.54921913,4.54921913,90.0,90.0,90.0,cubic,Pm-3m,0.0,-3.636118127999998,-2.231189525499999,0.0,True,6.050618361720007,0.6454000000000001,False,94.14788543919498,"{'voigt': 50.69, 'reuss': 50.69, 'vrh': 50.69}","{'voigt': 16.616, 'reuss': 13.128, 'vrh': 14.872}"
mp-1186886,RbHgO3,5,Rb1 Hg1 O3,4.378672,4.378672,4.378672,90.0,90.0,90.0,cubic,Pm-3m,1.5159997,-3.700536122,-0.473718297000001,0.36366087350000004,False,6.6075602505037345,0.0,False,83.95126452155172,,
mp-975296,RbHoO3,5,Rb1 Ho1 O3,4.497734,4.497734,4.497734,90.0,90.0,90.0,cubic,Pm-3m,1.9993839,-6.384995896,-2.300576585499999,0.251479937875,False,5.445794618591798,0.0,False,90.98740980757066,"{'voigt': 66.13, 'reuss': 66.13, 'vrh': 66.13}","{'voigt': 19.389, 'reuss': -4.766, 'vrh': 7.311}"
mp-1179783,RbIO3,5,Rb1 I1 O3,7.5342333037769675,6.9551801035076,5.4674922710591005,71.20474655790136,133.5512099796488,117.87953206362383,mono,Cm,2.3800000000000003e-05,-3.848607274,-0.378921333499999,0.9936082100000001,False,2.355550734454983,0.40799999999999903,False,183.5474527888017,,
mp-27193,RbIO3,5,Rb1 I1 O3,4.519323495300368,4.5193244089398155,4.519323164597181,89.71652164800666,89.71650902424665,89.71651552162027,trig,R3m,0.0,-4.8422154840000005,-1.3725295435,0.0,True,4.684210199306742,2.8369,True,92.3005840532074,,
mp-1110737,RbInBr3,10,Rb1 In1 Br3,8.09774035880641,8.09774035880641,8.09774035880641,59.99999999999999,59.99999999999999,59.99999999999999,cubic,Fm-3m,0.0,-3.229154639,-1.499045154833333,0.0251928205,False,3.891822753991732,1.3264,False,375.4711261547887,,
mp-998194,RbInBr3,5,Rb1 In1 Br3,5.735617186251711,5.735617186251711,5.7337136802348265,89.92559991595589,89.92559991595589,90.07227498953199,mono,Cm,0.0007017,-3.2130211259999992,-1.482911641833332,0.041326333500001006,False,3.873507170713019,0.0,False,188.62325637145042,,
mp-998800,RbInBr3,10,Rb1 In1 Br3,8.082918590525207,8.082918590525207,8.082919166915936,60.07849157123284,60.07849157123284,60.07848939596799,trig,R3c,0.0003359,-3.219485888,-1.4893764038333321,0.0348615715,False,3.9063230570269303,0.0,False,374.0773742733569,,
mp-1114001,RbInCl3,10,Rb1 In1 Cl3,7.736445266187859,7.736445266187859,7.736445266187859,60.00000000000001,60.00000000000001,60.00000000000001,cubic,Fm-3m,0.0,-3.626095886999999,-1.7690323278333322,0.0,True,3.110321793379116,1.677299999999999,False,327.42314383910946,,
mp-998195,RbInCl3,5,Rb1 In1 Cl3,5.451542177320836,5.452959755742289,5.453123336776273,90.2938327914553,90.13918602006193,90.03015875359144,mono,Cm,0.0009469999999990001,-3.589622517999999,-1.732558958833332,0.036473368999999006,False,3.141194062750498,0.0,False,162.10258258411477,,
mp-998204,RbInCl3,5,Rb1 In1 Cl3,5.452333292110819,5.452333292110819,5.452959708538566,89.83798278022662,89.83798278022662,90.13919046791544,tet,P4mm,0.001062,-3.58963095,-1.7325673908333332,0.036464936999999004,False,3.14117682370784,0.0,False,162.1034722167248,,
mp-998753,RbInCl3,10,Rb1 In1 Cl3,7.696961766980137,7.696961766980137,7.696961225510039,60.01451065381689,60.01451065381689,60.014511788491276,trig,R3c,0.0002184,-3.593625188999999,-1.7365616298333322,0.032470698,False,3.15739481307881,0.0,False,322.54165228910443,,
mp-1110662,RbInF3,10,Rb1 In1 F3,6.538670725574936,6.538670725574936,6.538670725574936,60.00000000000001,60.00000000000001,60.00000000000001,cubic,Fm-3m,0.0,-4.627204055999999,-2.732375112333332,0.00916132496031,False,4.3224842463490365,2.4848,False,197.67575458300075,,
mp-1147705,RbInH3,10,Rb1 In1 H3,6.257462264150859,6.257462264150859,6.257462264150859,59.99999999999999,59.99999999999999,59.99999999999999,cubic,Fm-3m,0.0002466,-2.831721672999999,-0.046680246583332,0.0506047814375,False,3.897241350162667,0.0,False,173.25258370847848,,
mp-1114161,RbInI3,10,Rb1 In1 I3,8.780939690015416,8.780939690015416,8.780939690015416,60.00000000000001,60.00000000000001,60.00000000000001,cubic,Fm-3m,0.0008571999999990001,-2.760979151,-1.098630018833333,0.056383545166663,False,4.030386077267493,0.0,False,478.74911602653697,,
mp-975299,RbInO3,5,Rb1 In1 O3,4.354854,4.354854,4.354854,90.0,90.0,90.0,cubic,Pm-3m,1.999988,-4.96813082,-1.251412653833333,0.29322044766667404,False,4.992028227764626,0.0,False,82.5887320345404,"{'voigt': 74.482, 'reuss': 74.482, 'vrh': 74.482}","{'voigt': 19.267, 'reuss': 2.834, 'vrh': 11.05}"
mp-975284,RbIrO3,5,Rb1 Ir1 O3,4.009203,4.009203,4.009203,90.0,90.0,90.0,cubic,Pm-3m,1.2001501,-6.137988264,-1.2054180105,0.044315119,False,8.392088349597639,0.0,False,64.44276112195803,"{'voigt': 141.653, 'reuss': 141.653, 'vrh': 141.653}","{'voigt': 79.735, 'reuss': 77.856, 'vrh': 78.796}"
mp-975291,RbLiO3,5,Rb1 Li1 O3,4.179392,4.179392,4.179392,90.0,90.0,90.0,cubic,Pm-3m,4.0000864,-4.24320535,-0.696537359166666,0.546886912999992,False,3.1937324895524712,0.0,False,73.00276697776181,,
mp-27208,RbMgCl3,20,Rb1 Mg1 Cl3,7.09539857,7.0953990895858965,11.86949791,90.0,90.0,120.00000228637853,hex_,P6_3/mmc,2e-07,-3.908508911999999,-2.277186098499999,0.0,True,2.774030074569228,4.7503,True,517.507435445248,,
mp-662499,RbMgCl3,30,Rb1 Mg1 Cl3,7.095199629316075,7.095199754938339,17.608760290000003,89.99999958035512,89.99999952399745,119.99928184252903,hex_,P6_3/mmc,0.0,-3.906933549999999,-2.275610736499999,0.001575362,False,2.804963512700363,4.6099,True,767.7004620050823,,
mp-541813,RbMgF3,30,Rb1 Mg1 F3,5.822173346985153,5.82217375231281,14.18328167000012,89.99999343051685,90.0000079127743,119.99810980532435,hex_,P6_3/mmc,0.0,-5.172563004,-3.503474806,0.005790626333332,False,3.990498651165317,6.6666,True,416.3762264433625,,