mp_id,formula,sites,composition,a_edge (angstrom),b_edge (angstrom),c_edge (angstrom),alpha_ang (deg),beta_ang (deg),gamma_ang (deg),crystal_system,space_group,total_magnetisation (bohr),energy_per_atom (eV/atom),formation_energy (eV/atom),energy_above_hull (eV/atom),stable,density (g/cc),band_gap (eV),direct_bandgap,volume (cubic-angstrom),bulk_modulus (GPa),shear_modulus (GPa)
mp-755321,SrCrO3,20,Sr1 Cr1 O3,5.512270993747858,5.512270993747858,9.157297,90.0,90.0,120.00001192717615,hex_,P6_3/mmc,8.0002548,-7.785740088500001,-2.5478683735,0.09643239343750201,False,5.171494013937901,0.0,False,240.9677928762296,,
mp-761337,SrCrO3,30,Sr1 Cr1 O3,5.531538,5.552581242214922,13.685607312090974,89.99368283501656,89.98776683670725,60.19202418737048,ortho,Ama2,11.9999417,-7.824536523000001,-2.586664808,0.05763595893750201,False,5.124997657756186,0.7210000000000001,False,364.730946713303,,
mp-769855,SrCrO3,20,Sr1 Cr1 O3,5.5373114291960315,5.5373114291960315,9.282726,90.0,90.0,119.38117357096768,ortho,Ama2,8.0000583,-7.8119524545,-2.5740807395000003,0.07022002743750201,False,5.024541828978767,0.829399999999999,False,248.0153496233369,,
mp-781082,SrCrO3,70,Sr1 Cr1 O3,5.543739,5.551915444890078,32.25815787918763,90.07578099777638,90.0095859572835,119.89870501616586,ortho,Ama2,27.9990937,-7.816883840285714,-2.579012125285714,0.065288641651789,False,5.067403038596599,0.5880000000000001,False,860.7115343340237,,
mp-1076711,SrCuO3,5,Sr1 Cu1 O3,3.83837744,3.83846023,3.83836534,90.0,90.0,90.0,cubic,Pm-3m,0.6731339,-5.867270727999999,-1.740167172999999,0.008427793812506001,False,5.848026625620712,0.0,False,56.55239894415372,,
mp-1192969,SrCuO3,30,Sr1 Cu1 O3,3.835821727048846,8.521220225341908,10.816168,90.0,90.0,90.05676491792255,ortho,Pmma,0.8828539,-5.829770215333334,-1.702666660333334,0.045928306479171004,False,5.612782439880305,0.0,False,353.5358139858937,,
mp-29049,SrCuO3,15,Sr1 Cu1 O3,3.855893,5.409559,8.552606,90.0,90.0,90.0,ortho,Pmmm,0.9322317,-5.832814253333334,-1.705710698333334,0.042884268479172004,False,5.561556161729805,0.0,False,178.39607754600405,,
mp-1187145,SrDyO3,5,Sr1 Dy1 O3,4.372935,4.372935,4.372935,90.0,90.0,90.0,cubic,Pm-3m,1.000689,-7.257123011999999,-3.026185685333332,0.25280565,False,5.919956586919827,0.0,False,83.6217141622725,,
mp-1187147,SrErO3,5,Sr1 Er1 O3,4.334821,4.334821,4.334821,90.0,90.0,90.0,cubic,Pm-3m,0.9997273,-7.304388106,-3.0835821230000002,0.222959852249998,False,6.174505378718418,0.0,False,81.45420436686246,,
mp-1100775,SrEuO3,5,Sr1 Eu1 O3,4.383632,4.383632,4.383632,90.0,90.0,90.0,cubic,Pm-3m,5.0025577,-8.043778978,-2.6788943740000013,0.32016034999998,False,5.669031021371436,0.0,False,84.23687860562264,,
mp-510624,SrFeO3,5,Sr1 Fe1 O3,3.82881691,3.82881275,3.82881172,90.0,90.0,90.0,cubic,Pm-3m,3.8837813,-7.224249359999999,-2.222982896999998,0.0,True,5.664240346569506,0.0,False,56.12970212480508,,
mp-1080133,SrGa3Pd,10,Sr1 Ga3 Pd1,6.121312696403071,6.121312696403071,6.01136307,90.0,90.0,116.55733634868234,ortho,Cmcm,0.0,-3.805619848,-0.6143002545,0.0,True,6.646193691032818,0.0,False,201.48202945336436,,
mp-1068235,SrGe3Ir,5,Sr1 Ge3 Ir1,5.964663145321361,5.964663145321361,5.964663145321361,135.88965064344757,135.88965064344757,64.1509832417354,tet,I4mm,0.0,-22.405616506,-0.581427054000002,0.0,True,8.150196949088539,0.0,False,101.41410684143666,,
mp-978987,SrGe3Pd,5,Sr1 Ge3 Pd1,6.042452392232789,6.042452392232789,6.042452392232789,136.4648802532426,136.4648802532426,63.262436104416444,tet,I4mm,0.0,-4.70062116,-0.552342466999999,0.0,True,6.62020916287034,0.0,False,103.33142912057775,"{'voigt': 71.0, 'reuss': 70.646, 'vrh': 70.823}","{'voigt': 26.991, 'reuss': 25.689, 'vrh': 26.34}"
mp-1068239,SrGe3Pt,5,Sr1 Ge3 Pt1,5.982998347227447,5.982998347227447,5.982998347227447,135.68324049000236,135.68324049000236,64.47043234910223,tet,I4mm,0.0,-22.307926092,-0.6580639499999991,0.0,True,8.06441475482467,0.0,False,103.08320379730172,,
mp-1078860,SrGeAu3,10,Sr1 Ge1 Au3,6.28212474,6.28212474,5.60321956,90.0,90.0,90.0,tet,P4/nmm,2e-07,-36.713661294000005,-0.559157473999999,0.0,True,11.281338361863176,0.0,False,221.13157122313382,,
mp-1016999,SrGeO3,5,Sr1 Ge1 O3,3.8568100000000003,3.8568100000000003,3.8568100000000003,90.0,90.0,90.0,cubic,Pm-3m,1.4400000000000001e-05,-6.824938958,-2.593071166,0.150044169333333,False,6.027906042529566,0.0,False,57.36998463477624,"{'voigt': 158.897, 'reuss': 158.897, 'vrh': 158.897}","{'voigt': 118.094, 'reuss': 111.974, 'vrh': 115.034}"
mp-17464,SrGeO3,30,Sr1 Ge1 O3,7.260790342684735,7.260790342684735,11.287563795039006,71.65165740533354,71.65165740533354,60.113726088304055,mono,C2/c,0.0,-6.974983127333333,-2.743115335333333,0.0,True,4.31734751498995,3.4179,False,480.6018637681073,,
mp-554869,SrGeO3,60,Sr1 Ge1 O3,8.652139304288081,9.943575715958834,11.16756590454278,73.90493086110443,89.93632227111151,77.98048306743296,tri,P-1,0.3893371,-6.9730983885,-2.7412305965,0.0018847388333320001,False,4.604582877343405,3.3373,False,901.2435295489332,,
mp-555731,SrGeO3,15,Sr1 Ge1 O3,7.053510133499916,7.053510133499916,5.771364,90.0,90.0,120.00000125218268,hex_,P-62m,0.0001186,-6.862306664,-2.630438872,0.112676463333333,False,4.172081475135839,3.0028,True,248.667874130049,,
mp-1207079,SrH3Pd,5,Sr1 H3 Pd1,3.82819304,3.82819304,3.82819304,90.0,90.0,90.0,cubic,Pm-3m,2.1000000000000002e-05,-3.9266422139999992,-0.515080370749999,0.0,True,5.83276536784657,0.0,False,56.10240616351812,,
mp-13108,SrHfO3,5,Sr1 Hf1 O3,4.138109,4.138109,4.146736,90.0,90.0,90.0,tet,P4mm,2.299999999999998e-06,-9.078168534,-3.779468506999999,0.032896416999999005,False,7.345445357839503,3.7304999999999993,False,71.00848373784919,,
mp-13109,SrHfO3,10,Sr1 Hf1 O3,5.768559274870295,5.7604834523041415,5.760484166430048,60.36996960083361,59.95360115419661,59.95361179759594,ortho,Imma,0.0,-9.109144964999999,-3.810444937999998,0.001919986,False,7.691217506693517,3.9893,False,135.63234605846927,"{'voigt': 158.096, 'reuss': 156.909, 'vrh': 157.502}","{'voigt': 88.246, 'reuss': 85.99, 'vrh': 87.118}"
mp-3378,SrHfO3,20,Sr1 Hf1 O3,5.76053461,5.77701466,8.14070902,90.0,90.0,90.0,ortho,Pnma,0.0,-9.111064951,-3.812364923999999,0.0,True,7.701226052099758,4.1704,False,270.9121553948899,"{'voigt': 155.364, 'reuss': 155.334, 'vrh': 155.349}","{'voigt': 92.832, 'reuss': 92.134, 'vrh': 92.483}"
mp-3721,SrHfO3,10,Sr1 Hf1 O3,5.786711248069903,5.786712432019262,5.78671330343066,120.67039232582556,120.67038769995989,88.8427716012556,tet,I4/mcm,0.0,-9.106974384,-3.8082743569999993,0.0040905669999980005,False,7.69302394736362,4.0578,False,135.60049749179666,"{'voigt': 155.741, 'reuss': 152.429, 'vrh': 154.085}","{'voigt': 99.139, 'reuss': 96.901, 'vrh': 98.02}"
mp-4551,SrHfO3,5,Sr1 Hf1 O3,4.141206,4.141206,4.141206,90.0,90.0,90.0,cubic,Pm-3m,0.0,-9.078107392,-3.779407364999999,0.032957558999999005,False,7.34425703345636,3.7226,False,71.01997313864919,"{'voigt': 163.199, 'reuss': 163.199, 'vrh': 163.199}","{'voigt': 102.411, 'reuss': 96.799, 'vrh': 99.605}"
mp-4673,SrHfO3,20,Sr1 Hf1 O3,5.767219101323598,5.767219101323598,8.15933204,90.0,90.0,90.62594694196517,ortho,Cmcm,0.0,-9.107316678999998,-3.808616651999998,0.0037482720000010005,False,7.688237160355052,3.9535,False,271.36984791729213,"{'voigt': 155.402, 'reuss': 154.489, 'vrh': 154.945}","{'voigt': 92.343, 'reuss': 90.104, 'vrh': 91.224}"
mp-550908,SrHfO3,10,Sr1 Hf1 O3,5.73453937,5.73453937,4.13569603,90.0,90.0,90.0,tet,P4/mbm,0.0,-9.099779000999998,-3.801078973999998,0.011285950000001,False,7.6703058011099,3.6763999999999992,False,136.00212319147215,"{'voigt': 155.643, 'reuss': 152.617, 'vrh': 154.13}","{'voigt': 100.837, 'reuss': 98.447, 'vrh': 99.642}"
mp-1208643,SrHfS3,20,Sr1 Hf1 S3,6.7297664600000004,7.0820188,9.74143735,90.0,90.0,90.0,ortho,Pnma,0.0,-18.954378553,-2.0739638116875,0.0,True,5.1832637195499665,1.4955999999999992,True,464.28014399911604,,
mp-971975,SrHgO3,5,Sr1 Hg1 O3,4.236171,4.236171,4.236171,90.0,90.0,90.0,cubic,Pm-3m,0.00021349999999900003,-4.728247862,-1.3590512335000011,0.273016526999999,False,7.344072416468472,0.0,False,76.01870174364761,"{'voigt': 102.967, 'reuss': 102.967, 'vrh': 102.967}","{'voigt': 48.472, 'reuss': 37.147, 'vrh': 42.81}"
mp-971996,SrHoO3,5,Sr1 Ho1 O3,4.355383,4.355383,4.355383,90.0,90.0,90.0,cubic,Pm-3m,0.9999566,-7.280823688,-3.054025573999998,0.23622259387499903,False,6.040663396361041,0.0,False,82.61883275427296,"{'voigt': 84.713, 'reuss': 84.713, 'vrh': 84.713}","{'voigt': 50.567, 'reuss': 41.619, 'vrh': 46.093}"
mp-1218236,SrIn3Au,5,Sr1 In3 Au1,7.0469297107461495,7.0469297107461495,7.0469297107461495,141.89938365739354,141.89938365739354,54.98038974109413,tet,I4mm,0.0,-3.062882236000001,-0.41411597200000005,0.0,True,7.8959562624408886,0.0,False,132.28878233146276,,
mp-1218256,SrIn3Hg,5,Sr1 In3 Hg1,7.137794480666942,7.137794480666942,7.137794480666942,141.4088978567107,141.4088978567107,55.72020474790206,tet,I4mm,0.0,-2.349822199999999,-0.2938979285,0.00018489744444400002,False,7.481434521727639,0.0,False,140.42270703303868,,
mp-972021,SrInO3,5,Sr1 In1 O3,4.214427,4.214427,4.214427,90.0,90.0,90.0,cubic,Pm-3m,0.9651919,-5.974557026,-2.1154600563333332,0.194183900500002,False,5.555595225065164,0.0,False,74.85410238575706,"{'voigt': 95.953, 'reuss': 95.953, 'vrh': 95.953}","{'voigt': 46.837, 'reuss': 36.314, 'vrh': 41.576}"
mp-1016848,SrIrO3,5,Sr1 Ir1 O3,3.998048,3.998048,3.998048,90.0,90.0,90.0,cubic,Pm-3m,0.0956451,-6.967076222,-1.8921271650000002,0.141754297999998,False,8.518451756735805,0.0,False,63.90634971621028,"{'voigt': 169.881, 'reuss': 169.881, 'vrh': 169.881}","{'voigt': 40.81, 'reuss': 36.593, 'vrh': 38.702}"
mp-1105160,SrIrO3,20,Sr1 Ir1 O3,5.641677,5.688867,7.9435459999999996,90.0,90.0,90.0,ortho,Pnma,2.5083674,-7.081156114,-2.006207056999999,0.027674405999999003,False,8.541148204505298,0.0,False,254.9461238569644,,
mp-1193907,SrIrO3,30,Sr1 Ir1 O3,5.562151814235789,5.562057105665424,14.320505605845897,88.53209775915428,88.53074305900748,119.71417530632704,mono,C2/c,2.0247608,-7.105362223666666,-2.030413166666667,0.003468296333332,False,8.499852324849448,0.0,False,384.2771400263827,,
mp-17097,SrIrO3,30,Sr1 Ir1 O3,5.516079985521319,5.516079985521319,14.37888941,90.0,90.0,118.567320764987,ortho,Cmcm,5.8699255,-7.089529060000003,-2.014580003000003,0.019301459999995,False,8.500577296220712,0.0,False,384.24436696692544,,
mp-24419,SrLiH3,5,Sr1 Li1 H3,4.630791,4.630791,4.630791,90.0,90.0,90.0,cubic,Pm-3m,0.0,-5.706050682999999,-0.126509745583332,0.45778285749999903,False,1.631795838220756,1.8195000000000001,False,99.30372545490403,,
mp-1187183,SrLiO3,5,Sr1 Li1 O3,3.909437,3.909437,3.909437,90.0,90.0,90.0,cubic,Pm-3m,3.0,-5.383844408,-1.694797613666666,0.28795796099999205,False,3.961883403012005,0.0,False,59.75065311696792,,
mp-571443,SrMgIn3,5,Sr1 Mg1 In3,4.706405955141015,4.706406209355401,7.1363250727197,109.25361563513376,109.25360317337166,89.99999377027738,tet,I-4m2,7e-07,-2.612270409999999,-0.292186542999998,0.0028427609999980004,False,5.419645813003214,0.0,False,139.8311227013373,"{'voigt': 35.587, 'reuss': 35.399, 'vrh': 35.493}","{'voigt': 22.697, 'reuss': 22.164, 'vrh': 22.431}"
mp-1187182,SrMgO3,5,Sr1 Mg1 O3,4.02557,4.02557,4.02557,90.0,90.0,90.0,cubic,Pm-3m,1.999758299999999,-5.950681476,-2.317325252,0.22068589599999602,False,4.070787384514324,0.0,False,65.23522261710269,,
mp-1017466,SrMnO3,20,Sr1 Mn1 O3,3.9030910016987814,8.625713699270745,7.685468003668026,63.54394850671421,89.99659717929033,89.99864260330551,cubic,Pm-3m,1.22e-05,-7.589702307,-2.450037027586207,0.049247349499999,False,5.463879681651756,0.0,False,231.64938296111515,,
mp-1193101,SrMnO3,30,Sr1 Mn1 O3,5.421407752910747,5.421407841212041,13.37753335,89.99999896950862,90.00000149883934,119.99995005233279,hex_,P6_3/mmc,5.9999986,-7.623904114666668,-2.4842388352528753,0.015045541833332001,False,5.575611297425895,0.0,False,340.51092050106075,,
mp-1218206,SrMnO3,20,Sr1 Mn1 O3,5.525516671154652,5.525516671154652,9.29245,90.0,90.0,120.00000803603285,hex_,P6_3mc,11.9985,-7.6263307529999995,-2.486665473586206,0.0126189035,False,5.151404564109284,0.0,False,245.70082607116166,,
mp-19001,SrMnO3,20,Sr1 Mn1 O3,5.452331201634285,5.452331311108301,9.09318312000001,90.0000034713971,89.99999533100745,120.00007154750797,hex_,P6_3/mmc,11.9999998,-7.6358860055000015,-2.496220726086208,0.003063650999999,False,5.406566540046488,0.9027000000000001,False,234.105017935749,,
mp-559975,SrMnO3,20,Sr1 Mn1 O3,5.533027768080059,5.533027768080059,9.289115,90.0,90.0,119.78192161864115,ortho,C222_1,0.0,-7.6389496565,-2.499284377086207,0.0,True,5.1280402987673455,0.0,False,246.82028281498637,,
mp-1078716,SrMoO3,10,Sr1 Mo1 O3,5.629252605895755,5.640318012614922,5.6179521329954625,60.20138919002756,60.19408403297125,59.8137141583734,ortho,Imma,0.2020207,-8.064238283,-2.587846040000001,0.009092675999999,False,6.087641874775175,0.0,False,126.32524882412753,,
mp-1187247,SrMoO3,10,Sr1 Mo1 O3,5.738037268615638,5.738037268615638,5.738037268615638,119.53709822159873,119.53709822159873,90.80365694733223,tet,I4/mcm,3.9999994,-8.033093228999999,-2.556700986,0.040237730000001005,False,5.71718624184237,0.0,False,134.51072644002824,,
mp-1542758,SrMoO3,10,Sr1 Mo1 O3,5.732841560964161,5.742741993100595,5.805785385926439,60.02558061029659,59.70750324129791,60.16030211817337,mono,C2/m,4.0000009,-8.073330959,-2.596938715999999,0.0,True,5.6946688398702925,1.3088,False,135.04259794686644,,
mp-18747,SrMoO3,5,Sr1 Mo1 O3,4.080579,4.080579,4.080579,90.0,90.0,90.0,cubic,Pm-3m,2.0000939,-7.989233433999999,-2.512841190999999,0.084097525,False,5.659054699524615,0.0,False,67.94623090034395,,
mp-10339,SrNbO3,20,Sr1 Nb1 O3,5.72665767,5.7301677600000005,8.13508265,90.0,90.0,90.0,ortho,Pnma,0.008971,-8.507971198,-3.180447969,0.007797432928578001,False,5.686060539403957,0.0,False,266.950371096918,,
mp-1173150,SrNbO3,20,Sr1 Nb1 O3,5.70922761,5.7097394900000005,8.19387064,90.0,90.0,90.0,tet,P4/mbm,9.4e-06,-8.5061820585,-3.1786588295,0.009586572428577,False,5.682759200612838,0.0,False,267.1054530886573,,
mp-7006,SrNbO3,5,Sr1 Nb1 O3,4.06969111,4.06969111,4.06968705,90.0,90.0,90.0,cubic,Pm-3m,0.0025986,-8.502292541999998,-3.174769312999998,0.013476088928580002,False,5.629866643903787,0.0,False,67.40372672579457,"{'voigt': 173.24, 'reuss': 173.24, 'vrh': 173.24}","{'voigt': 85.554, 'reuss': 73.977, 'vrh': 79.765}"
mp-1101333,SrNdO3,5,Sr1 Nd1 O3,4.496464,4.496464,4.496464,90.0,90.0,90.0,cubic,Pm-3m,0.999958999999999,-7.070098142000001,-2.8092064345,0.358035681749997,False,5.111835569658964,0.0,False,90.91035675028431,,
mp-1101421,SrNiO3,20,Sr1 Ni1 O3,5.491,5.515727,7.79842,90.0,90.0,90.0,ortho,Pnma,0.0333281,-6.2252305455,-1.761940988499999,0.047980611499993005,False,5.464456699231451,0.0,False,236.18963103060793,,
mp-1281591,SrNiO3,20,Sr1 Ni1 O3,3.87615555673879,8.728576716127664,7.754378031664113,116.36409367214219,89.99240567641593,90.00969471942712,ortho,Cmmm,9e-07,-6.2143859635,-1.751096406499999,0.058825193499993,False,5.490513318012392,0.0,False,235.068733435189,,
mp-1291939,SrNiO3,20,Sr1 Ni1 O3,3.893402663794357,11.129725170551652,5.483779773555919,89.98498802706848,89.97147250189387,90.0324836260227,ortho,Pmma,0.0009314,-6.2211368685,-1.7578473115,0.052074288499992,False,5.431430013891443,0.0,False,237.62582013820384,,
mp-1299294,SrNiO3,20,Sr1 Ni1 O3,5.502220223504144,5.503668577546708,9.627038609499081,89.82133470730454,106.49647706958585,60.04581281866352,trig,R-3m,0.003407,-6.2194994765,-1.7562099195,0.053711680499993,False,5.411997885139192,0.0,False,238.47903102811645,,
mp-752649,SrNiO3,5,Sr1 Ni1 O3,3.8539274220592166,3.8539274220592166,3.8393260732550445,89.99210117201697,89.99210117201697,90.22416770921308,mono,C2,0.0008,-6.203257982,-1.739968425,0.06995317499999301,False,5.658340730472058,0.0,False,57.02413804031096,,
mp-762506,SrNiO3,10,Sr1 Ni1 O3,5.504619191047914,5.513835293058816,5.512447131973059,60.07997227426949,119.91678749124895,119.94202108298465,cubic,Pm-3m,0.0173007,-6.22725944,-1.7639698830000001,0.045951716999993,False,5.445558235163306,0.0,False,118.50465607365828,,
mp-30805,SrNiSn3,5,Sr1 Ni1 Sn3,4.744507336730136,4.744506944200838,6.408337730342691,111.72685925968418,111.72686262112555,90.00001473276782,tet,I4mm,0.0,-4.335368846000003,-0.43511277900000206,0.0,True,6.788303555444901,0.0,False,122.90653881942512,"{'voigt': 51.336, 'reuss': 50.987, 'vrh': 51.162}","{'voigt': 25.039, 'reuss': 24.737, 'vrh': 24.888}"
mp-1105153,SrOsO3,20,Sr1 Os1 O3,5.585676,5.651719,7.970104,90.0,90.0,90.0,ortho,Pnma,4.2483181,-7.6549400565,-2.1022043495,0.06107738531818001,False,8.602092833802455,0.0,False,251.60559242284313,,
mp-867195,SrOsO3,5,Sr1 Os1 O3,3.992358,3.992358,3.992358,90.0,90.0,90.0,cubic,Pm-3m,1.0549489,-7.619098773999999,-2.066363066999999,0.09691866781818101,False,8.503074601842126,0.0,False,63.63388435567394,"{'voigt': 185.233, 'reuss': 185.233, 'vrh': 185.233}","{'voigt': 62.604, 'reuss': 59.281, 'vrh': 60.942}"
mp-9788,SrPS3,20,Sr1 P1 S3,6.730717369002145,7.62497267,9.452381468700203,90.0,91.67487173538905,90.0,mono,P2_1/c,0.0,-10.959014595,-1.308467669282737,0.0,True,2.942153579162792,3.1224,True,484.9034841602534,,
mp-7198,SrPSe3,20,Sr1 P1 Se3,7.068987530437916,7.86156988,9.87071049025167,90.0,91.6028519669681,90.0,mono,P2_1/c,0.0,-14.5446220605,-1.1281384455327381,0.0,True,4.305976869473027,2.1432,True,548.3337108817398,,
mp-20489,SrPbO3,20,Sr1 Pb1 O3,5.88572476,6.02726206,8.3694263,90.0,90.0,90.0,ortho,Pnma,0.0,-6.2053422304999994,-2.155550595499999,0.0,True,7.669326838228552,0.7941,False,296.90377048683945,"{'voigt': 105.447, 'reuss': 105.305, 'vrh': 105.376}","{'voigt': 50.587, 'reuss': 49.9, 'vrh': 50.244}"
mp-1187190,SrPdO3,5,Sr1 Pd1 O3,4.039472,4.039472,4.039472,90.0,90.0,90.0,cubic,Pm-3m,0.5146607,-6.020320384,-1.677081801,0.07012186049999601,False,6.09760384930354,0.0,False,65.91341396431488,,
mp-20464,SrPrO3,20,Sr1 Pr1 O3,6.179822,6.393694,8.887466,90.0,90.0,90.0,ortho,Pnma,3.999996,-7.262379620500001,-2.996023107833333,0.14508052237499702,False,5.230450051142066,0.0,False,351.1605864581457,,
mp-1187202,SrPtO3,5,Sr1 Pt1 O3,4.06243,4.06243,4.06243,90.0,90.0,90.0,cubic,Pm-3m,0.0006944,-6.221772341999999,-1.700283456999999,0.159764869749999,False,8.19084126274852,0.0,False,67.0436533800309,,
mp-1207172,SrPuO3,5,Sr1 Pu1 O3,4.36308,4.36308,4.36308,90.0,90.0,90.0,cubic,Pm-3m,3.9998094,-9.490294574,-3.235445856749998,0.090643798000012,False,7.589559929454946,0.0,False,83.05762881533012,,
mp-989623,SrReN3,20,Sr1 Re1 N3,7.578341342217556,7.578341342217556,6.188359916950507,78.22025713142571,78.22025713142571,86.98708659661617,mono,C2/c,0.0,-8.5572458865,-0.726170780000001,0.0,True,6.159965565058743,1.9969000000000001,False,340.57102630398566,,
mp-1187226,SrReO3,5,Sr1 Re1 O3,3.996911,3.996911,3.996911,90.0,90.0,90.0,cubic,Pm-3m,0.0008968,-8.19681131,-2.3999262475,0.126408216933336,False,8.369426730912323,0.0,False,63.851842473577,,
mp-1017441,SrRhO3,5,Sr1 Rh1 O3,4.004484,4.004484,4.004484,90.0,90.0,90.0,cubic,Pm-3m,1.4077495,-6.709019372,-1.928895577,0.09264819174998801,False,6.167951451627042,0.0,False,64.21547336522843,,
mp-1206840,SrRhO3,10,Sr1 Rh1 O3,5.663340408511836,5.663340408511836,5.663340408511836,120.94385432732288,120.94385432732288,88.37282562210636,tet,I4/mcm,2.00204,-6.7712679520000005,-1.991144156999999,0.030399611749989,False,6.259477489298199,0.0,False,126.55303029275241,,
mp-1206846,SrRhO3,10,Sr1 Rh1 O3,5.558798513141548,5.558798513141548,5.558798513141548,120.6100324793779,119.09029262443579,90.26473851461398,ortho,Imma,1.9982608,-6.78409905,-2.003975255,0.017568513749989002,False,6.508791103241229,0.0,False,121.7055259194724,,
mp-1208626,SrRhO3,20,Sr1 Rh1 O3,5.562995510287509,5.574341860076357,7.853862160293983,90.00008343402673,89.99901072220088,89.9993964414482,ortho,Pnma,3.9888011,-6.795857150000001,-2.015733355,0.005810413749988,False,6.505115960749281,0.0,False,243.5485698025016,,