mp_id,formula,sites,composition,a_edge (angstrom),b_edge (angstrom),c_edge (angstrom),alpha_ang (deg),beta_ang (deg),gamma_ang (deg),crystal_system,space_group,total_magnetisation (bohr),energy_per_atom (eV/atom),formation_energy (eV/atom),energy_above_hull (eV/atom),stable,density (g/cc),band_gap (eV),direct_bandgap,volume (cubic-angstrom),bulk_modulus (GPa),shear_modulus (GPa)
mp-776093,CsAsO3,20,Cs1 As1 O3,5.33191898,6.05643105,11.77973995,90.0,90.0,90.0,ortho,Pbcm,0.0,-5.973052514499997,-1.890505580931032,0.0,True,4.467005398017112,2.8702,False,380.39607043350026,,
mp-1112987,CsAuBr3,5,Cs1 Au1 Br3,5.47254,5.47254,5.47254,90.0,90.0,90.0,cubic,Pm-3m,0.000333299999999,-2.98430326,-1.167613114931035,0.053059759000001004,False,5.770853651388424,0.0,False,163.8954261451431,,
mp-569548,CsAuBr3,10,Cs1 Au1 Br3,7.810130999334652,7.810131921184077,7.95857072136076,119.3849069883038,119.38490620738337,89.9999924369226,tet,I4/mmm,0.0,-3.037363019,-1.220672873931035,0.0,True,5.411530359731257,0.653,False,349.55602409760155,"{'voigt': 9.692, 'reuss': 9.475, 'vrh': 9.584}","{'voigt': 5.073, 'reuss': 3.799, 'vrh': 4.436}"
mp-23026,CsAuCl3,5,Cs1 Au1 Cl3,5.206833,5.206833,5.206833,90.0,90.0,90.0,cubic,Pm-3m,1.4e-06,-19.953704689000002,-1.125408410500003,0.07064334400000001,False,5.131504297973442,0.0,False,141.1630216413004,,
mp-23484,CsAuCl3,10,Cs1 Au1 Cl3,7.46498904955907,7.464989608542521,7.615689598496833,119.34753831664271,119.34754700219437,90.0000030455692,tet,I4/mmm,0.0,-20.024348033000003,-1.196051754500001,0.0,True,4.735835795145365,0.5386000000000001,False,305.9137536017616,"{'voigt': 10.171, 'reuss': 10.148, 'vrh': 10.16}","{'voigt': 5.396, 'reuss': 4.6, 'vrh': 4.998}"
mp-1112985,CsAuF3,5,Cs1 Au1 F3,4.567677,4.567677,4.567677,90.0,90.0,90.0,cubic,Pm-3m,0.0017710999999990002,-18.827674040666665,-1.8166483751666642,0.104128091333336,False,6.741008665591425,0.0,False,95.2985201030349,,
mp-28453,CsAuI3,10,Cs1 Au1 I3,8.393816809900143,8.393815878830456,8.526452143482844,119.48674116816093,119.48674505620974,89.99999580111235,tet,I4/mmm,0.0,-2.696688997999996,-0.947759204931031,0.0,True,5.471687382536456,0.7337,True,431.2946941860062,,
mp-1185548,CsAuO3,5,Cs1 Au1 O3,4.289972,4.289972,4.289972,90.0,90.0,90.0,cubic,Pm-3m,1.474563799999999,-4.264953696,-0.461654868931034,0.44821452399999906,False,7.94746075648926,0.0,False,78.95204306569005,,
mp-567913,CsAuSe3,10,Cs1 Au1 Se3,6.592005255842975,7.6952562019305235,7.732700027366858,81.02189656384787,68.63364999192436,64.6444912347987,mono,C2/c,0.0,-24.306352541000003,-0.582583462437503,0.0,True,5.701850689530211,1.0527,False,330.10821328837363,,
mp-573358,CsBSe3,20,Cs1 B1 Se3,6.206779422690082,7.7029606925956395,12.95795499,90.0,90.0,106.82415711183896,mono,P2_1/c,0.0,-4.4690228445,-0.8558517796706191,0.0,True,4.262965177252166,1.7167,False,593.0100300717643,,
mp-1096925,CsBaI3,20,Cs1 Ba1 I3,5.27736676,10.58078051,18.51071733,90.0,90.0,90.0,ortho,Pnma,0.0,-3.402267387500001,-1.924319006431036,0.0,True,4.183075736046576,3.6259,True,1033.6136394682028,,
mp-1183934,CsBaO3,5,Cs1 Ba1 O3,5.030816,5.030816,5.030816,90.0,90.0,90.0,cubic,Pm-3m,3.0,-4.842209254,-1.309891838931034,0.48376279000000005,False,4.150264786101324,0.0,False,127.32547365151035,,
mp-1017555,CsBeF3,5,Cs1 Be1 F3,4.035341,4.035341,4.035341,90.0,90.0,90.0,cubic,Pm-3m,0.0,-4.819322582,-2.744806804431035,0.6625523055000001,False,5.026563847397926,5.367100000000001,False,65.71139997579614,"{'voigt': 80.268, 'reuss': 80.268, 'vrh': 80.268}","{'voigt': 47.602, 'reuss': 4.148, 'vrh': 25.875}"
mp-12262,CsBeF3,20,Cs1 Be1 F3,4.84401504,6.00417243,12.51777016,90.0,90.0,90.0,ortho,Pnma,0.0,-5.4818748875,-3.407359109931035,0.0,True,3.6289944374878162,6.644299999999999,False,364.0706021130139,,
mp-24341,CsBeH3,10,Cs1 Be1 H3,5.070669726859577,5.9128653700000005,7.80634952246779,90.0,108.86384796268091,90.0,mono,P2_1/m,0.0,-3.170810747,-0.20608248668103502,0.0,True,2.173383439367494,3.2298,False,221.48042743971286,,
mp-983578,CsBiO3,5,Cs1 Bi1 O3,4.417567,4.417567,4.417567,90.0,90.0,90.0,cubic,Pm-3m,0.2760863,-5.290564856,-1.364035566931036,0.040554781000007006,False,7.50991693049256,0.0,False,86.20837029442202,,
mp-28873,CsBrO3,5,Cs1 Br1 O3,4.639254736661108,4.639254476299543,4.639254038327179,88.72505696388099,88.7250489181458,88.72505622271734,trig,R3m,2.2e-06,-4.5367347559999995,-1.060823021931035,0.0,True,4.340530525699314,4.1681,True,99.77612005813248,,
mp-30056,CsCaBr3,5,Cs1 Ca1 Br3,5.70866573,5.70866573,5.70866573,90.0,90.0,90.0,cubic,Pm-3m,0.0,-3.8689126700000003,-2.305878948931035,0.0,True,3.683620990955734,4.3923,False,186.03893347623892,,
mp-1096927,CsCaCl3,5,Cs1 Ca1 Cl3,5.461912202004396,5.462038323084344,5.464458316918691,89.97426592901026,90.03123414669189,89.97633289990674,tet,P4mm,0.0,-12.654941288,-2.5359782995,0.00029149000000000004,False,2.84537563624901,5.3473,False,163.02207990762003,,
mp-1097916,CsCaCl3,5,Cs1 Ca1 Cl3,5.420258543704911,5.4173380506811535,5.416346015991925,90.00570167310903,89.97678313225016,90.0130572025564,cubic,Pm-3m,0.0,-12.655121046,-2.536158057499999,0.00011173200000000001,False,2.916579014950093,5.3331,False,159.04216959735567,,
mp-1206863,CsCaCl3,10,Cs1 Ca1 Cl3,7.667754568483377,7.667754568483377,7.667754568483377,120.35649454505025,120.35649454505025,89.3836344827685,tet,I4/mcm,0.0,-12.655232778,-2.536269789499999,0.0,True,2.926173995902905,5.2834,False,317.0413345134333,,
mp-7104,CsCaF3,5,Cs1 Ca1 F3,4.52053103,4.52053103,4.52053103,90.0,90.0,90.0,cubic,Pm-3m,0.0,-12.020796766,-3.7191043905,0.0,True,4.133979088092322,6.9005,False,92.37795928990893,"{'voigt': 47.44, 'reuss': 47.44, 'vrh': 47.44}","{'voigt': 27.367, 'reuss': 26.317, 'vrh': 26.842}"
mp-644203,CsCaH3,5,Cs1 Ca1 H3,4.621186,4.621186,4.621186,90.0,90.0,90.0,cubic,Pm-3m,0.0,-8.99763873775,-0.49707164699999906,0.012165698000005,False,2.961551996439553,3.1408,True,98.68709087228876,,
mp-1213688,CsCaI3,20,Cs1 Ca1 I3,8.57588159,8.78260577,12.28814489,90.0,90.0,90.0,ortho,Pnma,0.0,-3.328126307999997,-1.832852938931032,0.010001139500001002,False,3.973677915970215,3.9817,False,925.5257116270685,,
mp-998333,CsCaI3,5,Cs1 Ca1 I3,6.234632615971048,6.234632615971048,6.231499103546193,89.99261411581843,89.99261411581843,89.99760864206202,mono,Cm,0.002796099999999,-3.317324766,-1.822051396931035,0.020802681499998,False,3.795831241609599,3.7149,False,242.2223781078566,,
mp-998428,CsCaI3,20,Cs1 Ca1 I3,4.7281498200000005,10.71713597,17.79891735,90.0,90.0,90.0,ortho,Pnma,0.0,-3.338127447499997,-1.842854078431031,0.0,True,4.077721812552602,3.8335,True,901.9107359491211,,
mp-984240,CsCaO3,5,Cs1 Ca1 O3,4.684888,4.684888,4.684888,90.0,90.0,90.0,cubic,Pm-3m,3.0,-5.034596532,-1.484954128931034,0.426448184000002,False,3.568680556996517,0.0,False,102.8247443617045,"{'voigt': 40.397, 'reuss': 40.397, 'vrh': 40.397}","{'voigt': 14.954, 'reuss': 6.7219999999999995, 'vrh': 10.838}"
mp-541899,CsCdBr3,10,Cs1 Cd1 Br3,7.75054773,7.750548518006539,6.75925007,90.0,90.0,120.00000110676517,hex_,P6_3/mmc,0.0,-2.941244357000002,-1.587328573931035,0.0,True,4.580916049065491,2.901,True,351.63652167638946,,
mp-570231,CsCdBr3,5,Cs1 Cd1 Br3,5.53006949,5.53006949,5.53006949,90.0,90.0,90.0,cubic,Pm-3m,2e-07,-2.90856913,-1.5546533469310342,0.032675227000002,False,4.762385495000636,0.6968000000000001,False,169.11875228033412,,
mp-568544,CsCdCl3,5,Cs1 Cd1 Cl3,5.26440167,5.26440167,5.26440167,90.0,90.0,90.0,cubic,Pm-3m,0.0,-14.435389230000002,-1.7030874435000012,0.002633956000005,False,4.002617565982152,1.7462,False,145.8972327527039,"{'voigt': 29.552, 'reuss': 29.552, 'vrh': 29.552}","{'voigt': 14.043, 'reuss': 13.758, 'vrh': 13.901}"
mp-619015,CsCdCl3,30,Cs1 Cd1 Cl3,7.466469158234409,7.4664165235269255,18.575276510031404,90.00006120157302,89.99979471867498,119.99985708191872,hex_,P6_3/mmc,0.0,-14.438023186,-1.7057213995,0.0,True,3.907044593531173,2.4918,True,896.7967669645179,,
mp-8399,CsCdF3,5,Cs1 Cd1 F3,4.48681068,4.48681068,4.48681068,90.0,90.0,90.0,cubic,Pm-3m,0.0,-13.614192072,-2.699160898499999,0.0,True,5.557644493354357,3.2859,False,90.32609495079795,"{'voigt': 53.871, 'reuss': 53.871, 'vrh': 53.871}","{'voigt': 24.489, 'reuss': 23.597, 'vrh': 24.043}"
mp-1183925,CsCdO3,5,Cs1 Cd1 O3,4.541019,4.541019,4.541019,90.0,90.0,90.0,cubic,Pm-3m,3.0265081,-4.033011278,-0.6924868129310341,0.43496828200000004,False,5.201431676083625,0.0,False,93.63968780473493,,
mp-754202,CsClO3,10,Cs1 Cl1 O3,4.726173,6.573452,6.812806,90.0,90.0,90.0,ortho,Pmn2_1,0.000112899999999,-4.66767155,-1.149441790931035,0.071620677625002,False,3.394847047597858,5.1356,False,211.65529271955867,,
mp-760386,CsClO3,5,Cs1 Cl1 O3,4.790057835492177,4.790057835492177,4.790058042477565,85.84492340793757,85.84492340793757,85.8449336338168,trig,R3m,4.85e-05,-4.671130762,-1.152901002931035,0.068161465625002,False,3.293642814638612,5.465800000000001,True,109.0794275572189,,
mp-779389,CsClO3,10,Cs1 Cl1 O3,6.150975,5.212698,7.843003735704835,69.89401204367624,90.0,90.0,mono,P2_1/m,3.77e-05,-4.674400533,-1.156170773931035,0.06489169462500201,False,3.042760899983975,5.5682,True,236.14650286890378,,
mp-504708,CsCoCl3,10,Cs1 Co1 Cl3,7.256539238192395,7.256705053806395,5.987522456949634,90.00539652083246,89.99469254288394,120.00716267467563,hex_,P6_3/mmc,6.0000001,-12.874919893000001,-1.5167694185,0.0,True,3.627169502228624,0.0,False,273.03319678961685,,
mp-556943,CsCoF3,15,Cs1 Co1 F3,8.251573327774814,8.27596529593115,8.275997536779402,43.90358648975097,43.98164898456886,43.98177423446898,trig,R-3m,9.0,-5.252632150666667,-2.499315602097702,0.10126451008333001,False,5.012833516853386,0.0,False,247.28429844426051,,
mp-27179,CsCrBr3,10,Cs1 Cr1 Br3,7.75990760246828,7.75990760246828,6.492639,90.0,90.0,119.99999661072162,hex_,P6_3mc,7.9899598,-4.544500072,-1.451976832931035,0.06670300933333001,False,4.164932248951431,0.0,False,338.5828863435895,,
mp-29616,CsCrCl3,10,Cs1 Cr1 Cl3,6.259593660532374,7.255281159513714,7.290849811642273,119.83857694180254,88.50767166803932,89.99987156991962,mono,C2/m,8.0000005,-13.44975245,-1.723779723499998,0.0,True,3.369328060839493,0.15329999999999902,False,287.08960140196143,,
mp-570326,CsCrCl3,10,Cs1 Cr1 Cl3,7.395088804345827,7.395088804345827,6.173242,90.0,90.0,120.0000071960043,hex_,P6_3/mmc,7.9997579,-13.369917013666665,-1.643944287166664,0.07983543633333401,False,3.308491868083313,0.0,False,292.36857412596044,,
mp-610955,CsCrCl3,10,Cs1 Cr1 Cl3,7.383772755388739,7.383772755388739,6.190735,90.0,90.0,120.00000676837135,hex_,P6_3mc,8.0186257,-13.369597963666667,-1.643625237166665,0.08015448633333301,False,3.309263129170946,0.0,False,292.300434333001,,
mp-1172893,CsCrI3,20,Cs1 Cr1 I3,6.825858,11.019183,16.494567,90.0,90.0,90.0,ortho,Cmcm,15.9997765,-3.5647090384999993,-0.5399461514310341,0.5532643244999991,False,3.028185068035156,0.0,False,1240.645099010199,,
mp-27259,CsCrI3,10,Cs1 Cr1 I3,8.258842019189494,8.258842019189494,6.919918,90.0,90.0,120.00000015372214,hex_,P6_3/mmc,8.0073228,-4.058775547,-1.034012659931034,0.05919781599999901,False,4.595471590570692,0.0,False,408.7614175727206,,
mp-580597,CsCrI3,20,Cs1 Cr1 I3,7.044584,8.287951,14.112466,90.0,90.0,90.0,ortho,Pbcn,16.0044163,-4.0614037855,-1.036640898431034,0.056569577499999,False,4.5595768758278155,0.0,False,823.9586842960284,,
mp-27336,CsCuBr3,20,Cs1 Cu1 Br3,7.469930645167377,7.469930645167377,12.73041553,90.0,90.0,117.96976665690997,ortho,C222_1,0.0,-3.233106413499999,-1.251351334431034,0.0,True,4.6177024278199355,0.37359999999999904,False,627.3825242091172,,
mp-23032,CsCuCl3,30,Cs1 Cu1 Cl3,7.2835178146343065,7.282651011930456,18.18519688007152,89.9998366351955,89.99982197524714,119.99954438953704,hex_,P6_122,6.0000003,-12.214737264,-1.3340738154999991,0.0,True,3.611518889694559,0.5494,True,835.3747005276382,,
mp-2456411,CsCuCl3,10,Cs1 Cu1 Cl3,7.446860573987595,7.272837264397032,6.4797748257024494,89.07892483559695,91.92712136807158,120.78409151192379,mono,C2/c,2.0,-12.211991927666665,-1.331328479166664,0.0027453363333350004,False,3.33744626403946,0.5123,False,301.3253520050113,"{'voigt': 3.4050000000000002, 'reuss': 7.5120000000000005, 'vrh': 5.458}","{'voigt': -1.995, 'reuss': 4.065, 'vrh': 1.035}"
mp-567366,CsCuCl3,10,Cs1 Cu1 Cl3,7.311310697199648,7.311310697199648,6.030537,90.0,90.0,120.00000630890393,hex_,P6_3mc,1.9982435,-12.182192931666666,-1.301529483166665,0.032544332333333,False,3.602241990056665,0.0,False,279.17535054153336,,
mp-675287,CsCuCl3,10,Cs1 Cu1 Cl3,7.308069763891215,7.308069763891215,6.012731,90.0,90.0,119.99999786252293,hex_,P6_3/mmc,0.0074039,-12.165515121666665,-1.284851673166664,0.049222142333334,False,3.6161144687931053,0.0,False,278.1043517809719,"{'voigt': -4214754.022, 'reuss': 27.037, 'vrh': -2107363.493}","{'voigt': -102018456.958, 'reuss': 39.511, 'vrh': -51009208.723}"
mp-1079040,CsDyBr3,10,Cs1 Dy1 Br3,8.017402,8.017402,5.729822,90.0,90.0,90.0,tet,P4/mbm,0.8140836,-4.012957112,-1.927368261264367,0.09530201655555301,False,4.825249310478219,0.0,False,368.3057089588313,,
mp-644483,Ti3SnH,5,Ti3 Sn1 H1,4.1661480300000004,4.16665784,4.16499926,90.0,90.0,90.0,cubic,Pm-3m,1.168275,-13.836890281999999,-0.433976837749997,0.0,True,6.047748629076293,0.0,False,72.29986126465135,"{'voigt': 123.281, 'reuss': 123.281, 'vrh': 123.281}","{'voigt': 53.054, 'reuss': -3.26, 'vrh': 24.897}"
mp-4563,Ti3TlC,5,Ti3 Tl1 C1,4.24420109,4.24421542,4.24420006,90.0,90.0,90.0,cubic,Pm-3m,0.0006108999999990001,-7.496696180000001,-0.439373448166668,0.017583368333332003,False,7.819092442714188,0.0,False,76.45206469424494,"{'voigt': 148.372, 'reuss': 148.372, 'vrh': 148.372}","{'voigt': 84.52, 'reuss': 82.621, 'vrh': 83.571}"
mp-9964,Ti3TlN,5,Ti3 Tl1 N1,4.214039,4.214039,4.214039,90.0,90.0,90.0,cubic,Pm-3m,0.0003617,-21.069424643666668,-0.845159385416667,0.036445006666667,False,8.032508960953571,0.0,False,74.83343002536053,"{'voigt': 153.716, 'reuss': 153.716, 'vrh': 153.716}","{'voigt': 41.788, 'reuss': 40.151, 'vrh': 40.969}"
mp-1014257,Ti3ZnN,10,Ti3 Zn1 N1,5.538218553395233,5.538218553395233,8.29981295,90.0,90.0,147.8391701701678,ortho,Cmcm,1e-07,-7.628054908,-0.9711554270000001,0.0,True,5.465796292856454,0.0,False,135.5074075256752,"{'voigt': 147.03, 'reuss': 144.431, 'vrh': 145.73}","{'voigt': 95.51, 'reuss': 93.71, 'vrh': 94.61}"
mp-1217033,TiAl3Ge,10,Ti1 Al3 Ge1,4.005305,4.005305,10.591062,90.0,90.0,90.0,tet,P4mm,0.001354599999999,-4.897630984,-0.146581511666666,0.172040722999998,False,3.9376685077537923,0.0,False,169.90677473580263,,
mp-1248327,TiAlO3,30,Ti1 Al1 O3,5.49789458837699,5.494491020169566,12.001781000610325,89.9989242837396,89.99927647262106,119.87193301477598,ortho,Cmcm,0.3100538,-8.424581771666668,-3.127591599333334,0.23740372183333303,False,3.893182534470985,0.0,False,314.38311485811244,,
mp-1341716,TiAlO3,30,Ti1 Al1 O3,5.488500494785529,5.488500494785529,12.039816,90.0,90.0,120.00000596424226,hex_,P6_3cm,1.3986100000000001,-8.400689786666668,-3.103699614333334,0.26129570683333303,False,3.8967819790647233,0.0,False,314.092720217299,,
mp-1405134,TiAlO3,10,Ti1 Al1 O3,3.1803331023479275,3.1803331023479275,12.059897,90.0,90.0,119.99998132642588,hex_,P6_3/mmc,0.0499594,-8.404063179000001,-3.107073006666667,0.2579223145,False,3.862097139772634,0.0,False,105.63784455287283,,
mp-1475723,TiAlO3,5,Ti1 Al1 O3,3.860804,3.860804,3.860804,90.0,90.0,90.0,cubic,Pm-3m,6.400000000000002e-05,-7.6660689259999995,-2.369078753666666,0.9959165675000011,False,3.5446998346849,0.0,False,57.548401321217,,
mp-774520,TiAlO3,10,Ti1 Al1 O3,5.439791858725847,5.439791858725847,5.439791713803205,53.98988910301981,53.98988910301981,53.98988548021194,trig,R-3,2.0004032,-8.595938124,-3.298947951666666,0.06604736950000101,False,4.169728033310165,0.0,False,97.84417929423466,,
mp-9716,TiBO3,10,Ti1 B1 O3,5.686601699796637,5.686601699796637,5.686601236646104,48.849935906664186,48.849935906664186,48.84993888909076,trig,R-3c,1.9982994,-8.884257016,-3.000503655499999,0.07640892018333201,False,3.701937125617603,0.0,False,95.70124589670453,,
mp-1187465,TiBeO3,5,Ti1 Be1 O3,3.388902,3.388902,3.388902,90.0,90.0,90.0,cubic,Pm-3m,0.0010819,-7.608062538,-2.312304958666666,1.033670633499999,False,4.474596770357307,0.0,False,38.92037628226892,,
mp-1016846,TiCdO3,5,Ti1 Cd1 O3,3.886978,3.886978,3.886978,90.0,90.0,90.0,cubic,Pm-3m,4.4000000000000006e-05,-7.213101972,-2.4732249276666662,0.19823604300000003,False,5.889148358597162,0.0,False,58.726787929889916,"{'voigt': 181.549, 'reuss': 181.549, 'vrh': 181.549}","{'voigt': 75.946, 'reuss': 75.17, 'vrh': 75.558}"
mp-1101047,TiCdO3,10,Ti1 Cd1 O3,5.399254451831197,17.557653838272213,2.9994218859215187,96.56141878332058,89.98172708292053,79.78244495704068,tri,P1,0.2896073,-6.296802834999999,-1.556925790666666,1.11453518,False,2.4887070316451982,0.0,False,277.93610284000755,,
mp-1179263,TiCdO3,20,Ti1 Cd1 O3,3.852382,7.067657,9.41505,90.0,90.0,90.0,ortho,Pmc2_1,0.0019334999999990003,-7.1912718715,-2.451394827166666,0.2200661435,False,5.396613231147699,1.4505,False,256.34652840922064,,
mp-1179551,TiCdO3,10,Ti1 Cd1 O3,17.914609948010227,6.832166366507406,9.313683588076632,131.52440657028436,155.36961419748295,30.305832959110603,tri,P-1,0.0005566999999990001,-7.245404959,-2.505527914666666,0.16593305600000002,False,3.54002966957186,2.776399999999999,False,195.3942757687807,,
mp-13641,TiCdO3,10,Ti1 Cd1 O3,5.82305272566268,5.823053588000912,5.823052171200204,53.69843078928312,53.69841846182534,53.6984171856028,trig,R-3,0.0,-7.411338015,-2.671460970666666,0.0,True,5.810462306526291,2.9057,False,119.04414777961351,"{'voigt': 157.547, 'reuss': 654326.353, 'vrh': 327241.95}","{'voigt': 1551942321.691, 'reuss': -496931331.173, 'vrh': 527505495.259}"
mp-14550,TiCdO3,20,Ti1 Cd1 O3,5.369678,5.486639,7.718095,90.0,90.0,90.0,ortho,Pnma,0.0004519,-7.368795385999999,-2.628918341666666,0.042542629000000005,False,6.083926863535969,2.1213,False,227.38653800449333,,
mp-20940,TiCdO3,20,Ti1 Cd1 O3,5.400747,5.523009,7.692163,90.0,90.0,90.0,ortho,Pmc2_1,1.69e-05,-7.3717698475,-2.631892803166667,0.039568167499999,False,6.029352450479733,2.4636,True,229.44471704617422,"{'voigt': 149.662, 'reuss': 144.199, 'vrh': 146.93}","{'voigt': 65.587, 'reuss': 60.024, 'vrh': 62.805}"
mp-22345,TiCdO3,5,Ti1 Cd1 O3,4.09528,4.09528,4.09528,90.0,90.0,90.0,cubic,Pm-3m,1.0540207,-5.403051798,-0.663174753666666,2.008286217,False,5.035445983533509,0.0,False,68.68324431916595,,
mp-5052,TiCdO3,20,Ti1 Cd1 O3,5.31246054,5.42898714,7.64691644,90.0,90.0,90.0,ortho,Pna2_1,0.0,-7.372593440999999,-2.632716396666666,0.038744574000000004,False,6.2726038385036205,2.4156,True,220.54685782643037,,
mp-1179381,TiCoO3,10,Ti1 Co1 O3,11.607022560619324,5.835899165308547,5.549275341385216,117.68609236411285,138.46540325174476,43.43633440923231,tri,P-1,6.0000001,-8.470397449,-2.495839098666666,0.129342192499997,False,3.045965094638345,2.2549,False,168.7798608046742,,
mp-19424,TiCoO3,10,Ti1 Co1 O3,5.4552014382308025,5.454490870698214,5.455229501947625,55.22301684203238,55.20988827749729,55.211953395713486,trig,R-3,6.0000001,-8.5965849335,-2.622026583166667,0.003154707999996,False,5.039592429522875,0.0,False,102.01173445639701,,
mp-755606,TiCrO3,20,Ti1 Cr1 O3,5.118034,5.393204,7.614145,90.0,90.0,90.0,ortho,Pnma,16.0013855,-9.253288666,-2.774804165666667,0.11889169516667,False,4.672964172840295,0.4277,False,210.1702097484956,,
mp-756083,TiCrO3,30,Ti1 Cr1 O3,5.209415,5.232513860787184,14.209098478320572,92.12796904957622,90.62049099856532,119.69751224012029,tri,P1,24.0071822,-9.248453735333333,-2.769969235,0.123726625833336,False,4.38418161511454,0.0,False,336.02093158065657,,
mp-1147748,TiCuO3,5,Ti1 Cu1 O3,4.013939,4.013939,3.777672,90.0,90.0,90.0,tet,P4/mmm,6.780000000000002e-05,-7.5964208499999994,-2.2287045096666662,0.253246738500003,False,4.349127551713586,0.0,False,60.86474174556893,,
mp-1187469,TiCuO3,5,Ti1 Cu1 O3,3.8507730000000002,3.8507730000000002,3.8507730000000002,90.0,90.0,90.0,cubic,Pm-3m,0.9993563,-7.303850848000001,-1.936134507666667,0.5458167405000021,False,4.635794483096115,0.0,False,57.101005279421834,,