mp_id,formula,sites,composition,a_edge (angstrom),b_edge (angstrom),c_edge (angstrom),alpha_ang (deg),beta_ang (deg),gamma_ang (deg),crystal_system,space_group,total_magnetisation (bohr),energy_per_atom (eV/atom),formation_energy (eV/atom),energy_above_hull (eV/atom),stable,density (g/cc),band_gap (eV),direct_bandgap,volume (cubic-angstrom),bulk_modulus (GPa),shear_modulus (GPa)
mp-753988,VCrO3,20,V1 Cr1 O3,5.0307822397668405,5.401564805081386,7.365080514855631,83.9002835238565,89.90972670941798,89.8336497116049,tri,P1,19.9999992,-9.155518005999998,-2.4393506949999972,0.011217036125003,False,5.037750813353188,1.315,False,199.00531148478836,,
mp-754036,VCrO3,20,V1 Cr1 O3,5.007635475898827,5.403755490625577,8.936806949961934,85.37969345006846,73.35687724142284,117.61006366325331,tri,P1,16.0036945,-9.155962026999998,-2.439794715999997,0.010773015125003001,False,5.044746263421216,1.3624,True,198.72935474740822,,
mp-755281,VCrO3,20,V1 Cr1 O3,4.9924489926670965,5.401119034280049,8.967664417699876,85.14506014291108,73.64565190715749,117.58182458639821,tri,P1,20.0,-9.154426213499999,-2.438258902499998,0.012308828625002,False,5.03846170580696,0.029799999999999,False,198.97723319771274,,
mp-757023,VCrO3,20,V1 Cr1 O3,5.049218900760646,5.388211068514149,7.358600108390744,96.05204108470468,90.21383634164896,89.86897558142583,tri,P1,19.9999996,-9.1534814305,-2.437314119499999,0.013253611625001,False,5.035799752680351,1.345499999999999,False,199.08241372395443,,
mp-770778,VCrO3,20,V1 Cr1 O3,5.051755539031088,5.411071110133853,8.893147610409862,85.39857856300013,73.50958820460652,118.03140513373613,tri,P1,20.0,-9.153762243,-2.437594931999997,0.012972799125002,False,5.035548351236363,1.3901000000000001,True,199.09235298037535,,
mp-770779,VCrO3,20,V1 Cr1 O3,5.018231746078005,5.405271683280656,8.915471720530315,85.18651829770677,73.64886519687197,117.59964689314509,tri,P1,20.0000003,-9.157353598499999,-2.441186287499998,0.009381443625002001,False,5.03776469552615,1.680699999999999,False,199.00476310146337,,
mp-770843,VCrO3,20,V1 Cr1 O3,5.028424472296621,5.4089467313088555,7.357009563142099,96.06643300726374,90.07953017375014,89.94044254231922,tri,P1,19.9999993,-9.1555475535,-2.439380242499999,0.011187488625001001,False,5.038425701148166,0.0,False,198.9786550917356,,
mp-770849,VCrO3,20,V1 Cr1 O3,5.038280512151542,5.413247208458222,8.894540312719373,85.1533931369761,73.64880115985304,117.87386464287474,tri,P1,20.0000003,-9.155606201,-2.439438889999998,0.011128841125001001,False,5.038483540473991,1.4095,False,198.97637091413105,,
mp-770855,VCrO3,20,V1 Cr1 O3,5.409658461542849,5.409658461542849,8.645320398396656,74.38234801651956,74.38234801651956,55.6428743959042,mono,C2,20.0000002,-9.155188710000001,-2.439021399,0.011546332125000001,False,5.039180100435685,1.4293,True,198.94886664348786,,
mp-803450,VCrO3,20,V1 Cr1 O3,5.126993,5.499044174592981,8.827918534580279,105.45597248622461,89.97797843467715,117.7208082976176,tri,P1,13.5086943,-6.4477418455,0.2684254655,2.718993196625001,False,4.771343255848526,0.0,False,210.11675665237954,,
mp-806062,VCrO3,20,V1 Cr1 O3,5.118099,5.500426673546335,8.829189514207066,105.49564474693611,89.93937639788757,117.65709477009196,tri,P1,7.9192806000000004,-6.5462284725,0.16993883850000002,2.620506569625001,False,4.775316745659694,0.0,False,209.94192075432676,,
mp-806072,VCrO3,20,V1 Cr1 O3,5.132856,5.493069528751479,8.838029634227812,105.47332441828016,90.01500135672714,117.76772852725612,tri,P1,5.7855204,-6.558937358,0.157229953,2.607797684125001,False,4.768934491447769,0.0,False,210.22288555063435,,
mp-807999,VCrO3,20,V1 Cr1 O3,5.097243,5.499617883738196,8.86164650938199,105.5820136525138,89.94178381106084,117.60006865212254,tri,P1,6.0000631,-6.533004731,0.18316258000000102,2.6337303111250012,False,4.7778949139992335,0.0,False,209.8286353801246,,
mp-1105167,VCuO3,20,V1 Cu1 O3,6.347573034206617,6.347573034206617,6.347573034206617,109.47122063449069,109.47122063449069,109.47122063449069,cubic,Im-3,1.4192999,-7.342631387500001,-1.737232236500001,0.153366646500002,False,5.481797718239921,0.0,False,196.87983138529862,,
mp-2371810,VCuO3,5,V1 Cu1 O3,3.196335643246901,5.006966690982692,5.824767971894177,114.2743665819355,105.95828023174357,90.00423084725624,mono,Cm,0.0,-7.401737221999999,-1.796338071,0.09426081200000301,False,3.330232839797754,0.925999999999999,False,81.01951592977308,,
mp-504580,VCuO3,10,V1 Cu1 O3,5.561753345053877,5.561753345053877,5.5617528051394025,53.42632744828868,53.42632744828868,53.42632881752913,trig,R-3,0.0002714,-7.401524406,-1.7961252550000002,0.094473628000002,False,5.242412013754299,0.658999999999999,False,102.93500469095072,,
mp-562987,VCuO3,5,V1 Cu1 O3,3.222381,5.010254466839484,5.532574663121773,111.11934689630226,105.33184345054808,89.10338145792896,tri,P1,0.001122199999999,-7.389398718000001,-1.783999567000001,0.10659931600000201,False,3.370874003857391,0.8024,False,80.04269880900075,,
mp-755580,VGaO3,20,V1 Ga1 O3,5.135831000088106,7.875593000197382,5.139276000041348,89.99956992375671,89.99982156362357,90.00066545621021,ortho,Pnma,8.000609,-7.700893132500001,-2.309716111000001,0.092056070124998,False,5.389298103486119,1.605299999999999,False,207.87196926224522,,
mp-755199,VGeO3,20,V1 Ge1 O3,5.272905109877666,6.796618153659436,6.796816322492319,94.2070371175358,82.6823670980501,97.31846826630202,mono,C2/c,0.002165,-7.869839513500001,-2.159676125500001,0.078092769625,False,4.763920504405174,0.014299999999999001,False,239.22716142895217,,
mp-1178874,VHO3,30,V1 H1 O3,5.045671401325794,8.772321999999999,7.9982947135439435,90.0,105.06244997018196,90.0,mono,P2_1/m,0.0022959,-7.428777367666667,-1.964186262916666,0.022129907083334,False,2.912898127176999,2.071399999999999,False,341.85945458103134,,
mp-1178894,VHO3,20,V1 H1 O3,3.673247,6.18254517749074,12.111181990417037,94.31013398989161,89.36462413004828,107.0795174602221,tri,P1,0.0005457,-7.386914307500001,-1.9223232027500012,0.063992967249999,False,2.53235687666212,0.009399999999999001,False,262.1541416440997,,
mp-625246,VHO3,30,V1 H1 O3,8.570394,5.115848,8.290879816449518,80.62159446333423,90.0,90.0,mono,P2_1,0.0003626,-7.402357497333333,-1.937766392583333,0.048549777416668,False,2.776501606796738,2.1444,False,358.6534085084494,,
mp-625258,VHO3,30,V1 H1 O3,8.697049,5.045689,7.871836464597699,76.02769800481175,90.0,90.0,mono,P2_1,0.002533199999999,-7.426041035333333,-1.961449930583333,0.024866239416668,False,2.970626307385457,2.1433,False,335.2160998948648,,
mp-625407,VHO3,30,V1 H1 O3,5.189992,8.185303492861154,8.627587549083405,89.65306874192945,87.94920091929447,82.22967385917906,tri,P1,0.0025027,-7.4021558679999995,-1.937564763249999,0.048751406750001,False,2.743890284113196,2.1077,False,362.9160286664567,,
mp-627119,VHO3,20,V1 H1 O3,3.634134,6.175622327966389,12.141031318606588,93.53318590824621,90.02793286035366,106.4179582962685,tri,P1,0.000270499999999,-7.381677612,-1.91708650725,0.069229662750001,False,2.545223543173255,0.6363,False,260.82889462440477,,
mp-627209,VHO3,20,V1 H1 O3,6.223946161425243,6.223946161425243,11.563163167863411,85.93012148173868,85.93012148173868,34.61632975325461,mono,Cm,0.9466735,-7.308086718,-1.84349561325,0.14282055675000102,False,2.61618506158982,0.0,False,253.75416024066269,,
mp-627684,VHO3,20,V1 H1 O3,3.717014,6.093734140106951,13.14990065364218,90.51937038677075,96.43338261436418,107.06919641300351,tri,P1,3.999999899999999,-7.153336496,-1.68874539125,0.29757077875000104,False,2.348622948026337,0.32219999999999904,False,282.6625891123868,,
mp-1016938,VHgO3,5,V1 Hg1 O3,3.864387,3.864387,3.864387,90.0,90.0,90.0,cubic,Pm-3m,0.813022599999999,-6.347981838,-1.500489613500001,0.291137883375001,False,8.618806919094467,0.0,False,57.7087725860362,,
mp-29188,VHgO3,10,V1 Hg1 O3,3.583442643827672,4.878733203704883,8.65353611897472,85.81277174751125,77.59814177842304,88.74475352356909,tri,P-1,0.0,-6.635623628000002,-1.788131403500003,0.003496093374999,False,6.750589982871576,2.175599999999999,False,147.3591996311414,,
mp-972116,VIrO3,5,V1 Ir1 O3,3.927342,3.927342,3.927342,90.0,90.0,90.0,cubic,Pm-3m,1.981831699999999,-7.200050698000001,-0.646806045000002,1.244942713500001,False,7.9814118168985235,0.0,False,60.57538264454688,,
mp-1246912,VMoN3,20,V1 Mo1 N3,7.7594591115071125,5.316903748454399,10.939501655718084,136.17770227048098,119.77696452306922,73.21333553712027,tri,P-1,2.13e-05,-9.447640695,-0.458762812,0.3000552148,False,4.656998335423136,0.0,False,269.4254658905697,,
mp-1205732,VNCl3,10,V1 N1 Cl3,7.30126254413591,7.30126254413591,5.920421,90.0,90.0,120.00000493061874,hex_,P6_3/mmc,10.0004155,-8.521921876875007,-0.18679325812500702,1.032160641374998,False,2.081495989411634,0.0,False,273.3248581182874,,
mp-1178820,VNO3,20,V1 N1 O3,3.210251,6.014614,18.122809,90.0,90.0,90.0,ortho,Pbcm,7.9986438,-7.785383456000001,-1.332170090000001,0.387016587500002,False,2.143923168997543,0.0,False,349.92281877251384,,
mp-1189181,VNO3,20,V1 N1 O3,3.211532,6.092092,15.468759,90.0,90.0,90.0,ortho,Pbcm,7.9965887,-7.776691492,-1.323478126,0.395708551500002,False,2.478833184765723,0.0,False,302.6454717235132,,
mp-1189578,VNO3,20,V1 N1 O3,5.219632,12.524772,6.098239,90.0,90.0,90.0,ortho,Pbcm,16.1407549,-6.7828941065,-0.329680740499999,1.3895059370000031,False,1.88177340749285,0.17550000000000002,True,398.6705495678396,,
mp-1206033,VNiO3,10,V1 Ni1 O3,5.002699851499998,5.010852071609071,5.332540498291,62.99660904851379,62.3006259764657,59.06659542174061,tri,P-1,5.9999998,-7.912232267,-1.9706471140000001,0.030067912000024004,False,5.376829351296319,0.0,False,97.36441446710847,,
mp-1273627,VNiO3,10,V1 Ni1 O3,5.051205469103094,5.498325531149462,5.04052952898195,118.06656685474775,119.5751949332435,62.62751990937775,trig,R3,6.0026218,-7.859973411,-1.9183882580000002,0.082326768000024,False,5.102324182173681,0.037200000000000004,False,102.60262241030391,,
mp-556026,VOF3,20,V1 O1 F3,5.06642859,5.574411463020324,9.315073200404797,91.01902993804589,90.0,90.0,mono,P2_1/c,0.0,-6.6673375635,-2.714076768,0.0,True,3.129597024750794,3.6563,False,263.0380207108062,,
mp-752787,VOF3,20,V1 O1 F3,12.453854,4.908887,4.975631748235594,85.54535392272433,90.0,90.0,mono,P2_1/c,0.0,-6.6462010015000015,-2.6929402060000003,0.021136561999999002,False,2.714475002626318,3.469999999999999,False,303.26416939423234,,
mp-752824,VOF3,20,V1 O1 F3,5.334596,7.311551,8.575374,90.0,90.0,90.0,ortho,Pca2_1,0.0001274,-6.638061385999999,-2.6848005905,0.029276177500000004,False,2.461176895082745,3.2589,False,334.47535147009444,,
mp-753030,VOF3,20,V1 O1 F3,5.22677,5.857773,10.115719,90.0,90.0,90.0,ortho,P2_12_12_1,0.0,-6.646938645500001,-2.693677850000001,0.020398917999999003,False,2.657934435170588,3.3804,False,309.7153173231089,,
mp-753525,VOF3,20,V1 O1 F3,5.35979,5.35979,9.21233,90.0,90.0,90.0,tet,P4_1,0.0,-6.642386050000001,-2.6891252545000013,0.024951513499999002,False,3.110583853355106,3.2329,True,264.6458175769678,,
mp-754919,VOF3,10,V1 O1 F3,5.31313,5.49012,5.594209676108503,60.23317829458277,90.0,90.0,mono,Pc,0.0,-6.645721616,-2.6924608205,0.021615947499999,False,2.905759358991169,3.033,False,141.65023756452416,,
mp-756077,VOF3,20,V1 O1 F3,5.343035,5.561066081865958,9.634724895404279,88.7750087663091,87.73720757969721,88.66473127632514,tri,P1,0.0,-6.6409554995,-2.687694704000001,0.026382063999999,False,2.879183689676638,2.876,False,285.9154176110699,,
mp-759725,VOF3,20,V1 O1 F3,4.914218,5.650224,10.071659,90.0,90.0,90.0,ortho,Pna2_1,0.0,-6.6195179115,-2.666257116,0.047819652000000004,False,2.943647830337035,3.0935,False,279.6540396337506,,
mp-759983,VOF3,20,V1 O1 F3,7.901217,5.297866,9.093245612547644,69.99318839728925,90.0,90.0,mono,P2_1/c,0.000284099999999,-6.622325324500001,-2.669064529000001,0.045012238999999,False,2.301579850181379,3.495,False,357.6686713467723,,
mp-760178,VOF3,20,V1 O1 F3,4.827354,4.6021339999999995,12.840370862208614,69.67144392772978,90.0,90.0,mono,P2_1/c,0.0,-6.616277464000001,-2.663016668500001,0.051060099499999005,False,3.077440679509625,2.8891,False,267.495978880753,,
mp-760313,VOF3,10,V1 O1 F3,5.647576167093721,5.647576167093721,4.968264348641686,88.46769488802549,88.46769488802549,63.01538687715064,mono,C2,9.199999999999997e-06,-6.571712243999999,-2.6184514485,0.09562531950000001,False,2.916228130916661,2.2205,False,141.1417368698996,,
mp-760338,VOF3,20,V1 O1 F3,4.855594,5.11303,11.794434,90.0,90.0,90.0,ortho,Pnc2,1.2e-06,-6.571033314999999,-2.6177725195,0.09630424850000001,False,2.81131258460573,2.2258,False,292.8180279633779,,
mp-760367,VOF3,10,V1 O1 F3,7.065299912527422,7.065299912527422,4.650986901489404,71.51037297886484,71.51037297886484,39.12859483571732,mono,C2,0.0003803,-6.613691194,-2.660430398500001,0.053646369500000006,False,2.983345170531265,2.6463,False,137.96643699567014,,
mp-761122,VOF3,20,V1 O1 F3,6.382427,6.419101,10.782713760070791,67.33637656888884,90.0,90.0,mono,Pc,0.0007191999999990001,-6.642384792,-2.6891239965000002,0.024952771500000002,False,2.019385636249227,3.8907,True,407.6502240264916,,
mp-761177,VOF3,20,V1 O1 F3,5.830825,5.830825,8.17585,90.0,90.0,90.0,tet,P4_1,0.0,-6.6092626005,-2.656001805,0.05807496300000001,False,2.961515560144203,3.0386,True,277.96680121876295,,
mp-764274,VOF3,20,V1 O1 F3,8.07873528,8.07873528,3.90662956,90.0,90.0,90.0,tet,P-42_1m,0.0,-6.6610325024999995,-2.707771707,0.006305061000000001,False,3.228627644699634,3.4202,False,254.9699431473032,,
mp-775981,VOF3,20,V1 O1 F3,5.292168,5.499516474334993,9.330487658244342,88.81727374877941,89.92567901707694,88.90872851799833,tri,P-1,0.0031295,-6.6042611815,-2.651000385999999,0.063076382,False,3.032605833195741,1.8771,False,271.45071014566736,,
mp-776441,VOF3,20,V1 O1 F3,5.474497,5.496589801965305,10.435282464519013,89.20385311920104,89.39920395997473,60.45502179634622,tri,P-1,0.000101,-6.604577831999999,-2.6513170365,0.0627597315,False,3.013749813134977,1.8397000000000001,False,273.14908604060963,,
mp-776473,VOF3,20,V1 O1 F3,5.46281,5.5276318017187975,10.892589041519054,91.75705129561729,91.6776444329027,118.34329523932092,tri,P1,0.0,-6.641668579,-2.688407783499999,0.025668984500000002,False,2.8485465831458283,2.9487,False,288.990537098313,,
mp-776474,VOF3,20,V1 O1 F3,5.7566749999999995,7.633794845324309,7.677915710327445,76.42851132152695,70.79391059539189,71.6803777377372,tri,P1,0.0008757,-6.644426971,-2.6911661755000003,0.0229105925,False,2.751163533147091,3.055199999999999,False,299.2199471585771,,
mp-781081,VOF3,10,V1 O1 F3,5.400268,5.520821,5.583806279310288,60.906523854622925,90.0,90.0,mono,P2_1,3e-06,-6.644945375000001,-2.6916845795000013,0.022392188499999,False,2.829449036398578,3.1125,False,145.47054858084292,,
mp-850876,VOF3,20,V1 O1 F3,5.420504,5.592232996182116,9.562092995053854,89.3374849374613,89.91712502658314,86.58488210990046,tri,P1,1e-07,-6.6371964195,-2.683935624000001,0.030141143999999002,False,2.845313649515691,2.9248000000000003,False,289.31889711104316,,
mp-1187750,VOsO3,5,V1 Os1 O3,3.912223,3.912223,3.912223,90.0,90.0,90.0,cubic,Pm-3m,2.0979584,-7.8646217499999995,-0.8335904470000001,1.082910720000005,False,8.01920057245928,0.0,False,59.878485316366636,,
mp-1078971,VPS3,10,V1 P1 S3,5.933588,5.946927225018061,6.922391670218322,81.80297827828373,73.39356350331927,60.07417163202179,mono,C2/m,4.881998,-6.160961794,-0.7780701344285701,0.11585447284895901,False,2.915747722244791,0.1223,False,202.87012210072882,,
mp-1070440,VPbO3,5,V1 Pb1 O3,3.932572,3.932572,3.932572,90.0,90.0,90.0,cubic,Pm-3m,0.996292899999999,-7.54024152,-2.012154289,0.124516472312494,False,8.35869929314855,0.0,False,60.81770785843361,,
mp-20032,VPbO3,10,V1 Pb1 O3,5.4193766845150195,5.419376684200592,6.2661796895346855,64.38122015803836,64.38136608140583,89.99844494289776,tet,P4mm,1.2e-06,-7.642703820000001,-2.114616589,0.022054172312493,False,6.981900647635635,1.3715000000000002,False,145.6213593813756,,
mp-972184,VPtO3,5,V1 Pt1 O3,3.81334,3.81334,3.81334,90.0,90.0,90.0,cubic,Pm-3m,0.9984346,-6.95606388,-0.956279399,0.8465754645000011,False,8.804705797753165,0.0,False,55.45191986776771,,
mp-21862,VRu3C,5,V1 Ru3 C1,4.003409,4.003409,4.003409,90.0,90.0,90.0,cubic,Pm-3m,0.1434092,-9.123774186,0.1033816505,0.302494620972222,False,9.476167370549405,0.0,False,64.16377149498896,,
mp-754608,VSiO3,20,V1 Si1 O3,5.044745738264472,6.542455933066406,6.542457871769489,93.2077050523802,82.20503287875337,97.79496707460063,mono,C2/c,12.0000003,-8.679419126500001,-2.8087977035,0.020424157416666002,False,3.983450374027556,0.0,False,211.80663719870822,,
mp-1207852,VSnO3,20,V1 Sn1 O3,5.417807,5.629041,7.854641,90.0,90.0,90.0,ortho,Pnma,11.9313373,-7.5457117175000015,-1.958239529500001,0.267822433249995,False,6.035077889986486,0.0,False,239.54344004967217,,
mp-1100777,VTeO3,5,V1 Te1 O3,3.928665999999999,3.928665999999999,3.928665999999999,90.0,90.0,90.0,cubic,Pm-3m,1.8290088,-6.760054014,-1.345835018333333,0.6161638888333351,False,6.203804357410974,0.0,False,60.636667488791325,,
mp-1247461,VWN3,20,V1 W1 N3,5.392869395895102,8.757928075715967,9.456943364014453,103.1274765934751,136.36781990637328,87.75688257719388,tri,P-1,9.84e-05,-19.028143616624998,-0.459419191874999,0.3602444335,False,6.234727326229744,0.058300000000000005,False,294.89011881155636,,
mp-1016931,VZnO3,5,V1 Zn1 O3,3.780363,3.780363,3.780363,90.0,90.0,90.0,cubic,Pm-3m,0.8507357,-6.7178567099999995,-1.6803501710000002,0.5494903799999971,False,5.05143604595241,0.0,False,54.02571356190828,,
mp-1378086,VZnO3,20,V1 Zn1 O3,5.150506,5.1538640000000004,7.643512,90.0,90.0,90.0,ortho,Pnma,3.9999889,-7.1620193815,-2.124512842500001,0.10532770849999601,False,5.380214103185048,0.8621000000000001,True,202.89708302378835,,
mp-556208,WCl3O,20,W1 Cl3 O1,12.249127,12.249127,3.827525999999999,90.0,90.0,90.0,tet,P4_2/mnm,3.9992334,-6.207032278,-1.516692034999999,0.05997516049998901,False,3.541470115463625,0.0,False,574.2862582522175,,
mp-28573,WI3O,20,W1 I3 O1,3.867756,13.986735,13.986735,90.0,90.0,90.0,tet,P4_2/mnm,4.0013644,-5.3055564485,-0.8099306324999991,0.033221527083334,False,5.096347798094554,0.8858,True,756.6442946376959,,
mp-1188654,WNCl3,20,W1 N1 Cl3,8.124419915265028,8.263463250796098,9.193290534268904,97.9275032480821,107.37182531771384,110.76745427016056,tri,P-1,0.0,-16.648670619,-0.8578982702500011,0.0,True,3.813683736182408,1.8151000000000002,False,529.8241638023845,,
mp-753398,WOF3,20,W1 O1 F3,5.54778935,4.97041236,9.16448092,90.0,90.0,90.0,ortho,P2_12_12_1,3.9980532,-7.340028386,-2.611922758499999,0.0,True,6.750600088596528,2.4411,True,252.70873540039716,,
mp-753808,WOF3,20,W1 O1 F3,9.288599696130952,9.288599696130952,3.7965357304060765,89.97491460992174,89.97491460992174,90.20812375669516,mono,Cm,3.9999653,-7.190523522499999,-2.462417894999999,0.1495048635,False,5.208079425947178,0.0,False,327.5556058311811,,
mp-766847,WOF3,20,W1 O1 F3,9.290983,9.290983,3.859623,90.0,90.0,90.0,tet,P-42_1m,3.9999012,-7.203203196,-2.475097568499999,0.13682519,False,5.120288344933605,0.0,False,333.1717857786305,,
mp-4448,Y3AlC,5,Y3 Al1 C1,4.88638886,4.88638886,4.88638886,90.0,90.0,90.0,cubic,Pm-3m,5.4e-06,-6.892799500000001,-0.392496335500001,0.0,True,4.35105292922317,0.0,False,116.67131043219946,"{'voigt': 79.684, 'reuss': 79.684, 'vrh': 79.684}","{'voigt': 64.15, 'reuss': 63.772, 'vrh': 63.961}"
mp-10601,Y3GaC,5,Y3 Ga1 C1,4.85428524,4.85428317,4.85429039,90.0,90.0,90.0,cubic,Pm-3m,6.3e-06,-6.809426208,-0.452619005000001,0.0,True,5.058421007866305,0.0,False,114.38686351547275,"{'voigt': 78.798, 'reuss': 78.798, 'vrh': 78.798}","{'voigt': 64.818, 'reuss': 63.958, 'vrh': 64.388}"
mp-19817,Y3InC,5,Y3 In1 C1,4.91830942,4.91830942,4.91830942,90.0,90.0,90.0,cubic,Pm-3m,7.8e-06,-6.8079928659999975,-0.50497011883333,0.0,True,5.492844864479261,0.0,False,118.97276161300869,,
mp-21017,Y3PbC,5,Y3 Pb1 C1,4.9095349,4.9095349,4.9095349,90.0,90.0,90.0,cubic,Pm-3m,6.0700000000000005e-05,-7.038181249999996,-0.544463837499995,0.0,True,6.81867813360989,0.0,False,118.33713615433366,,