mp_id,formula,sites,composition,a_edge (angstrom),b_edge (angstrom),c_edge (angstrom),alpha_ang (deg),beta_ang (deg),gamma_ang (deg),crystal_system,space_group,total_magnetisation (bohr),energy_per_atom (eV/atom),formation_energy (eV/atom),energy_above_hull (eV/atom),stable,density (g/cc),band_gap (eV),direct_bandgap,volume (cubic-angstrom),bulk_modulus (GPa),shear_modulus (GPa)
mp-1184220,GaTeO3,5,Ga1 Te1 O3,3.887148,3.887148,3.887148,90.0,90.0,90.0,cubic,Pm-3m,0.0005189,-5.39680263,-1.193745643833333,0.613529692416662,False,6.935710366037678,0.0,False,58.734493651861776,,
mp-580539,Gd3AlC,5,Gd3 Al1 C1,4.94053157,4.93884406,4.94179571,90.0,90.0,90.0,cubic,Pm-3m,21.311725,-11.381464933999998,-0.340943325499999,0.0,True,7.033428751796712,0.0,False,120.58236033760726,,
mp-1069273,Gd3AlN,5,Gd3 Al1 N1,5.482043,5.482043,5.482043,90.0,90.0,90.0,cubic,Pm-3m,21.9083014,-28.194056549450004,1.016316430800003,1.916497475749999,False,5.167940339844754,0.0,False,164.75071694820474,,
mp-1207153,Gd3GaC,5,Gd3 Ga1 C1,4.90815985,4.90811674,4.90818275,90.0,90.0,90.0,cubic,Pm-3m,21.2922676,-11.301830981999998,-0.40480533499999805,0.0010320590000010002,False,7.773196130632182,0.0,False,118.23724644672859,,
mp-20501,Gd3InC,5,Gd3 In1 C1,5.660396,5.660396,5.660396,90.0,90.0,90.0,cubic,Pm-3m,21.1906251,-9.298198006,1.5450431851666662,1.888670382,False,5.480622761049163,0.0,False,181.35955695559784,,
mp-637378,Gd3InN,5,Gd3 In1 N1,4.876704119658836,4.874577090401946,4.877545243849944,90.01681822144431,90.03453620652857,89.95861863968585,cubic,Pm-3m,21.888467,-33.472165708,-1.092494317749992,0.0,True,8.601054209479306,0.0,False,115.94831604042972,,
mp-19958,Gd3PbC,5,Gd3 Pb1 C1,5.788733,5.788733,5.788733,90.0,90.0,90.0,cubic,Pm-3m,21.6121884,-9.50724281,1.5266930465000002,1.930529828499993,False,5.914961037780243,0.0,False,193.977141777736,,
mp-1207074,Gd3SnC,5,Gd3 Sn1 C1,4.94748706,4.9474829,4.94746415,90.0,90.0,90.0,cubic,Pm-3m,21.8300514,-11.700816084,-0.6074952704999981,0.0,True,8.261014860342694,0.0,False,121.10208621393856,,
mp-1207135,Gd3TlC,5,Gd3 Tl1 C1,4.96836386,4.96836698,4.96837114,90.0,90.0,90.0,cubic,Pm-3m,21.2553073,-11.181872846000005,-0.416171980166673,0.0,True,9.317241100477617,0.0,False,122.64252723779084,,
mp-1076933,GdAl3Cu,5,Gd1 Al3 Cu1,6.0563017530076415,6.0563017530076415,6.0563017530076415,139.95145582497247,139.95145582497247,57.92701339980633,tet,I4mm,7.117644999999999,-15.368792637999999,-0.48077337999999903,0.0,True,5.496854317533845,0.0,False,91.15251225006766,,
mp-1178268,GdAlO3,5,Gd1 Al1 O3,3.735328,3.735328,3.735328,90.0,90.0,90.0,cubic,Pm-3m,6.9965953,-10.146833046000001,-3.613716829,0.085117609400002,False,7.399130733331266,1.8884999999999992,False,52.11781860191401,,
mp-5223,GdAlO3,20,Gd1 Al1 O3,5.242647680000584,5.305336410000055,7.445629910000773,89.99999292736057,90.00005175717249,89.99998478880393,ortho,Pnma,27.9999996,-10.2235662665,-3.6904500495,0.008384388900003,False,7.448380870596259,3.2382,False,207.09282195486637,"{'voigt': 185.903, 'reuss': 183.1, 'vrh': 184.501}","{'voigt': 111.506, 'reuss': 106.457, 'vrh': 108.981}"
mp-753953,GdAsO3,20,Gd1 As1 O3,12.060432,4.44231,6.500154625976524,59.90759352582546,90.0,90.0,mono,P2_1/c,27.9999192,-9.474184692,-2.756159134500001,0.048771131999998,False,6.176031602613676,2.1719,False,301.315102069506,,
mp-1194303,GdBO3,30,Gd1 B1 O3,6.630340992702852,6.6303420303275615,9.681883073990214,70.33476036730954,70.33475605955161,60.09216630947538,mono,C2/c,42.0000001,-10.61890975333333,-3.499030348166664,0.0,True,6.332712922461124,3.1001,False,339.92516006133087,,
mp-1224628,GdBO3,10,Gd1 B1 O3,3.930880935711866,3.930880935711866,8.64031518,90.0,90.0,113.14492819618742,ortho,Ama2,14.0000004,-10.533528722333331,-3.413649317166664,0.08538103099999801,False,5.844997803838378,0.1743,False,122.76300328555719,,
mp-29762,GdBO3,15,Gd1 B1 O3,6.129265409221239,6.129265409221239,6.129266154483749,62.98774564616914,62.98774564616914,62.98775684528873,trig,R32,20.9994212,-10.399488719999999,-3.279609314833333,0.21942103333333102,False,6.199244282892027,2.094999999999999,False,173.62184449890864,,
mp-561949,GdBO3,10,Gd1 B1 O3,5.281029880360553,5.281029880360553,6.518395,90.0,90.0,119.99999850118591,hex_,P6_3/mmc,13.9999891,-10.475372913,-3.355493507833333,0.143536840333331,False,4.557674388341321,2.2691,True,157.43763671055578,,
mp-20967,GdBPd3,5,Gd1 B1 Pd3,4.305525,4.305525,4.305525,90.0,90.0,90.0,cubic,Pm-3m,7.0744849,-24.521686538454553,-0.5967424729545511,0.120721310636362,False,10.138784174721678,0.0,False,79.81386569921659,,
mp-19840,GdBRh3,5,Gd1 B1 Rh3,4.19646217,4.19646627,4.19648879,90.0,90.0,90.0,cubic,Pm-3m,6.2813963,-25.424636636,-0.794227558499997,0.0,True,10.713015494879,0.0,False,73.9014766854702,,
mp-1184468,GdBeO3,5,Gd1 Be1 O3,3.599403,3.599403,3.599403,90.0,90.0,90.0,cubic,Pm-3m,5.959154,-9.405294392,-2.8734107680000003,0.31543744899999904,False,7.629560996578337,0.0,False,46.63279248900443,,
mp-1184471,GdCdO3,5,Gd1 Cd1 O3,4.138427,4.138427,4.138427,90.0,90.0,90.0,cubic,Pm-3m,6.9336049,-7.78714926,-1.811146170999999,0.675020264,False,7.442256580708544,0.0,False,70.87709295487406,,
mp-20951,GdCoO3,5,Gd1 Co1 O3,3.773077,3.858133999999999,3.773779,90.0,90.0,90.0,cubic,Pm-3m,8.7266229,-9.540154408,-2.329470012999999,0.233212029714287,False,7.98549583486763,0.0,False,54.93503924339065,,
mp-1069379,GdCoSi3,5,Gd1 Co1 Si3,5.612877539088662,5.612877539088662,5.612877539088662,137.4665121318015,137.4665121318015,61.721050280738154,tet,I4mm,6.8789372,-8.133100186,-0.6360015759999991,0.0,True,6.245549424635057,0.0,False,79.87957772570829,,
mp-1147577,GdCrO3,5,Gd1 Cr1 O3,3.871736,3.871736,3.871736,90.0,90.0,90.0,cubic,Pm-3m,3.9990318,-10.653252972,-2.938642427,0.23466173249999903,False,7.359997181461667,0.7847000000000001,False,58.03863768944233,,
mp-18331,GdCrO3,20,Gd1 Cr1 O3,5.31706381,5.54613965,7.6161894100000005,90.0,90.0,90.0,ortho,Pnma,40.0000011,-10.8879147045,-3.173304159499999,0.0,True,7.60771859687336,2.6309,True,224.59516837845578,,
mp-1184481,GdCuO3,5,Gd1 Cu1 O3,3.798793,3.798793,3.798793,90.0,90.0,90.0,cubic,Pm-3m,6.994289,-8.85020497,-2.246362585,0.15927121600000202,False,8.142018852244014,0.0,False,54.819729366320175,,
mp-1184486,GdErO3,5,Gd1 Er1 O3,4.241146,4.241146,4.241146,90.0,90.0,90.0,cubic,Pm-3m,7.001956,-9.93883887,-3.241294056999999,0.734958887500001,False,8.10838010579864,0.3657,False,76.28684769568456,,
mp-766236,GdErO3,40,Gd1 Er1 O3,9.203974040566436,9.205196264729164,10.623697027212119,54.72360344620484,54.735503627088505,70.51267689183146,mono,C2,5.9999999,-10.66889429325,-3.971349480249999,0.0049034642500000005,False,8.247946859547477,3.2641,True,599.9677434621269,,
mp-600576,GdFeO3,20,Gd1 Fe1 O3,5.35764278,5.64185001,7.68223768,90.0,90.0,90.0,ortho,Pnma,48.0089536,-10.275178546499998,-2.797173253499997,0.0040783190000010005,False,7.468297682099711,0.0,False,232.21112873567893,,
mp-1212456,GdGa3Os,15,Gd1 Ga3 Os1,6.4208835600002026,6.420876230000271,6.420900360000422,89.99996823290513,90.00002685924157,89.99999000584809,cubic,Pm-3m,20.5617901,-7.362232748000015,-0.48467720050001506,0.0,True,10.475307058885102,0.0,False,264.7189449496295,,
mp-1104851,GdGa3Ru,15,Gd1 Ga3 Ru1,6.421240330000081,6.4210828100000805,6.41009931,90.0,90.0,90.0000182028421,cubic,Pm-3m,6.9923952,-7.069083891999999,-0.582121322499998,0.0,True,8.81149897457825,0.0,False,264.296829612781,,
mp-18656,GdGaO3,20,Gd1 Ga1 O3,5.373171,5.619652,7.703354,90.0,90.0,90.0,ortho,Pnma,28.0001128,-9.467354193,-3.0777339375,0.048926079999999005,False,7.85192888029128,3.3962,False,232.60547911276728,,
mp-1212640,GdInO3,30,Gd1 In1 O3,6.367214474850559,6.367214540638233,12.34803472000003,90.0000030829653,90.00000486687384,119.99985170199885,hex_,P6_3cm,42.0000007,-9.283875620666667,-2.948039821,0.0,True,7.355497910311508,1.7714,True,433.53891373129386,,
mp-1212778,GdInO3,20,Gd1 In1 O3,5.603476,5.932986,8.215895,90.0,90.0,90.0,ortho,Pnma,28.0000002,-9.2316398285,-2.895804028833333,0.052235792166666004,False,7.783289466450447,2.521299999999999,True,273.14026095991534,,
mp-756424,GdLuO3,20,Gd1 Lu1 O3,5.672778,5.9310469999999995,8.264289,90.0,90.0,90.0,ortho,Pnma,28.0004082,-10.642339261,-3.954000719333332,0.055596962124997006,False,9.08251061281044,3.1346,False,278.05624247754866,,
mp-510575,GdMnO3,20,Gd1 Mn1 O3,5.33266967,5.63531689,7.62006186,90.0,90.0,90.0,ortho,Pnma,44.0000015,-10.598357226999923,-2.98195311758613,0.0,True,7.5469574291453725,0.404099999999999,False,228.9926389386748,,
mp-1079303,GdNiGe3,10,Gd1 Ni1 Ge3,11.019226649080098,11.019226649080098,4.127765,90.0,90.0,158.34280946103053,ortho,Cmmm,13.9813376,-7.329480765,-0.584412267999999,0.0,True,7.789809440690717,0.0,False,184.97169430219614,,
mp-505604,GdNiO3,20,Gd1 Ni1 O3,5.23580731,5.49316529,7.47467175,90.0,90.0,90.0,ortho,Pnma,24.0000019,-9.389624715,-2.449596327999998,0.0,True,8.154897113823294,0.0,False,214.9801926295192,,
mp-20182,GdRh3C,5,Gd1 Rh3 C1,4.16968333,4.16967923,4.16969563,90.0,90.0,90.0,cubic,Pm-3m,7.000828,-9.540689495999999,-0.46114722750000103,0.0,True,10.948287769658945,0.0,False,72.49533719269476,,
mp-1184503,GdRhO3,5,Gd1 Rh1 O3,3.963804,3.963804,3.963804,90.0,90.0,90.0,cubic,Pm-3m,6.9836175,-9.328475658,-2.071613033000001,0.424622490749998,False,8.216369643660476,0.0,False,62.27826638278755,,
mp-5690,GdScO3,20,Gd1 Sc1 O3,5.49028423,5.75677968,7.96255827,90.0,90.0,90.0,ortho,Pnma,27.9999996,-10.970822516499998,-3.920327644499998,0.011744571875,False,6.603534803754681,3.1418,True,251.66745686793627,"{'voigt': 164.432, 'reuss': 160.8, 'vrh': 162.616}","{'voigt': 81.67, 'reuss': 80.173, 'vrh': 80.921}"
mp-510490,GdScS3,20,Gd1 Sc1 S3,6.41368888,7.06362167,9.53369315,90.0,90.0,90.0,ortho,Pnma,28.0000007,-18.042306378,-2.262208397687499,0.0,True,4.588943873902729,1.1773999999999991,True,431.9132118420603,,
mp-1069477,GdSi3Ir,5,Gd1 Si3 Ir1,4.211714,4.211714,5.745584376884478,111.50099974557486,111.50099974557486,90.0,tet,I4mm,6.8707792,-8.650907530000001,-0.8128054280000011,0.0,True,8.263298368928012,0.0,False,87.15827308870581,,
mp-1184484,GdSiO3,5,Gd1 Si1 O3,3.730327,3.730327,3.730327,90.0,90.0,90.0,cubic,Pm-3m,6.5779426,-9.751558952,-2.882494295,0.607033879624996,False,7.464244455265322,0.0,False,51.90876675147047,,
mp-1184491,GdThO3,5,Gd1 Th1 O3,4.58893,4.58893,4.58893,90.0,90.0,90.0,cubic,Pm-3m,7.0243404,-10.404723892,-3.137951190999999,0.7811935103333311,False,7.514163318402116,0.0,False,96.63496616304798,,
mp-510278,GdTiO3,20,Gd1 Ti1 O3,5.411929,5.706203,7.746719,90.0,90.0,90.0,ortho,Pnma,24.0002879,-10.980702133,-3.617602678666666,0.026689669499974002,False,7.02765129029747,0.0,False,239.23081017440822,,
mp-756030,GdTmO3,20,Gd1 Tm1 O3,5.691408,5.949788,8.333527,90.0,90.0,90.0,ortho,Pnma,27.9598453,-10.605396297999999,-3.924894951000001,0.06784739675000001,False,8.807292061290385,3.159,False,282.19548324982117,,
mp-541177,GdVO3,20,Gd1 V1 O3,5.340210448882319,5.679854389841112,7.572467958291737,90.13197241933783,89.91655893625286,90.03460105209044,ortho,Pnma,21.9999991,-10.853466169,-3.252683904,0.0,True,7.408655933518536,0.0,False,229.68430934192185,,
mp-1184599,GdZrO3,5,Gd1 Zr1 O3,4.162337,4.162337,4.162337,90.0,90.0,90.0,cubic,Pm-3m,6.6541714,-10.773722312,-3.280181134999999,0.39293696174999904,False,6.826865628840743,0.0,False,72.1126937347448,,
mp-973738,GeBO3,5,Ge1 B1 O3,3.407341,3.407341,3.407341,90.0,90.0,90.0,cubic,Pm-3m,0.000103799999999,-6.239931454,-1.010670925833333,1.358852277666668,False,5.51772748811999,0.0,False,39.55913595647476,"{'voigt': 202.009, 'reuss': 202.009, 'vrh': 202.009}","{'voigt': 73.892, 'reuss': -367.618, 'vrh': -146.863}"
mp-1184562,GeBiO3,5,Ge1 Bi1 O3,3.9479100000000003,3.9479100000000003,3.9479100000000003,90.0,90.0,90.0,cubic,Pm-3m,0.0010192,-6.117669014,-1.446279978,0.42342692916666,False,8.895268820351014,0.0,False,61.53209907785566,,
mp-28369,GeH3Cl,10,Ge1 H3 Cl1,4.586317383634804,4.58631886477767,8.35736286,90.0,90.0,104.82594308701053,ortho,Cmc2_1,0.0,-3.735963525,-0.404550758749999,0.0,True,2.171531544639755,4.7492,False,169.9388811751938,"{'voigt': 1.62, 'reuss': 0.866, 'vrh': 1.242999999999999}","{'voigt': 1.155, 'reuss': 0.779, 'vrh': 0.967}"
mp-1188940,GeNCl3,20,Ge1 N1 Cl3,8.590112,8.552563,9.615191,90.0,90.0,90.0,ortho,Pnma,12.0000037,-7.894998092000002,0.39661089674999706,1.172104375333333,False,1.814789258143425,1.1093,True,706.4037953461383,,
mp-1224374,GeNCl3,5,Ge1 N1 Cl3,6.497648118527272,6.497648118527272,6.497648430287684,95.38146971839811,95.38146971839811,95.38145964557998,trig,R3m,4.000805,-7.794300983500001,0.497308005249998,1.272801483833333,False,1.185020551667622,0.42710000000000004,False,270.4539634147818,,
mp-1017566,GePbO3,5,Ge1 Pb1 O3,3.888436999999999,3.888436999999999,3.888436999999999,90.0,90.0,90.0,cubic,Pm-3m,0.0001146,-6.347383798,-1.711472209999999,0.21775594300000903,False,9.259412950330407,0.0,False,58.79294308872988,"{'voigt': 157.328, 'reuss': 157.328, 'vrh': 157.328}","{'voigt': 103.813, 'reuss': 89.836, 'vrh': 96.824}"
mp-553898,GePbO3,60,Ge1 Pb1 O3,7.229470280000035,11.459317963779474,13.294012791925226,118.98450495129293,89.99999009849105,90.00000050188864,mono,P2/c,0.0,-6.552029497333334,-1.916117909333333,0.013110243666675,False,6.780851276832049,2.9339,False,963.397868023716,,
mp-554699,GePbO3,30,Ge1 Pb1 O3,9.346834620911249,9.346834616567222,9.346834820432342,113.50188580074823,113.50188583649775,113.50187542377792,trig,R-3,0.0,-6.565139740999998,-1.929228152999997,0.0,True,6.355755299726998,2.7131,False,513.9167066238759,,
mp-624190,GePbS3,20,Ge1 Pb1 S3,10.51691811,6.899259188352069,7.398606341785049,74.60755247782733,90.0,90.0,mono,P2_1/c,0.0,-4.882144105500001,-0.731993379999999,0.0,True,4.825704315060559,1.757899999999999,False,517.5790037198703,,
mp-1184557,GePdO3,5,Ge1 Pd1 O3,3.767674,3.767674,3.767674,90.0,90.0,90.0,cubic,Pm-3m,2.0008729,-5.8652823220000005,-0.935923786,0.674000173999997,False,7.049630161449204,0.0,False,53.483516561437256,,
mp-541785,GePdS3,10,Ge1 Pd1 S3,3.47151536,7.581681148093653,9.321243386886957,106.74018161053091,90.0,103.23473610156437,mono,C2/m,0.0,-5.094248789000001,-0.6506511154999991,0.0,True,4.007212268784747,1.3441,False,228.1245165560433,"{'voigt': 14.598, 'reuss': 1.725, 'vrh': 8.161}","{'voigt': 8.531, 'reuss': 1.641, 'vrh': 5.086}"
mp-1224339,GeSbTe3,5,Ge1 Sb1 Te3,10.16588788229518,10.16588788229518,10.165888143268152,23.88331071028311,23.88331071028311,23.883309860925262,trig,R3m,0.0033024,-3.964750424,-0.328361068999999,0.027202951999997,False,6.334706398086518,0.0,False,151.30348417268974,,
mp-1184641,GeTeO3,5,Ge1 Te1 O3,3.901783,3.901783,3.901783,90.0,90.0,90.0,cubic,Pm-3m,0.003015,-5.536753259999999,-1.014709907333333,0.7278014918333381,False,6.939503104568603,0.0,False,59.40039549100962,,
mp-625509,H3BrO,5,H3 Br1 O1,4.243537035920098,4.265772796270595,4.24340551852523,71.9681533378078,72.0529534982241,72.07401258981301,trig,R3m,0.0,-4.383925334,-1.02984396275,0.0,True,2.432062285960742,4.4183,True,67.5445339160958,,
mp-625521,H3BrO,5,H3 Br1 O1,4.276298452545379,4.276298452545379,4.429754639261299,71.60769411141807,71.60769411141807,70.76810895955511,mono,Cm,0.001372599999999,-4.383592362,-1.02951099075,0.00033297199999900005,False,2.329276515930034,4.417,True,70.52512333192955,,
mp-1078197,H3CBr,10,H3 C1 Br1,4.4705439838338465,4.4705439838338465,8.082275,90.0,90.0,102.90813404920587,ortho,Cmc2_1,0.001270799999999,-4.488575583,-0.27835331424999904,0.054792830249999,False,2.002548656489085,4.5531,False,157.44848033962828,,
mp-1078233,H3CCl,10,H3 C1 Cl1,4.137763842004158,4.137763842004158,7.651655,90.0,90.0,103.54085063691824,ortho,Cmc2_1,0.0,-4.625037816000001,-0.37249752224999905,0.079513755249998,False,1.316495231333453,5.572100000000001,False,127.36316446939563,"{'voigt': 2.526, 'reuss': 3.614, 'vrh': 3.07}","{'voigt': 1.488, 'reuss': 35.147, 'vrh': 18.317}"
mp-1096983,H3CI,5,H3 C1 I1,15.478978933210193,15.478978933210193,15.478979349178097,90.20473348686963,90.20473348686963,90.20473612177064,trig,R3m,0.000417899999999,-4.336038568,-0.148403083249999,0.091890805833332,False,0.063552436689304,4.289499999999999,True,3708.673502497096,,
mp-1181198,H3CI,20,H3 C1 I1,4.775167,7.237313,10.250821,90.0,90.0,90.0,ortho,Pnma,0.00018199999999900002,-4.359877885,-0.172242400249999,0.06805148883333201,False,2.661253400696346,3.3729,False,354.2619998637851,,
mp-554676,H3CS,40,H3 C1 S1,6.653195,8.746443,9.005909245127057,85.85458805202865,90.0,90.0,mono,P2_1/c,0.0013146,-4.939623659,-0.22911878374999903,0.046965816660713006,False,1.1970270544677701,3.715799999999999,False,522.6989160266388,,
mp-559204,H3CS,40,H3 C1 S1,15.292967,5.3685410000000005,7.006773799136448,72.77216430425,90.0,90.0,mono,P2_1/c,0.0001439,-4.940820294,-0.23031541874999903,0.045769181660713004,False,1.138740772456515,3.5897,False,549.4531845690603,,
mp-1200055,H3CSe,40,H3 C1 Se1,5.684396,10.064531647603081,12.447993437841017,86.30308249130569,76.80147567266619,73.59665616764116,ortho,Fdd2,0.0011612,-4.765331731750001,-0.18331647446875002,0.006003463906248001,False,1.877315582570225,2.5842,False,665.1266263613468,,
mp-2802611,H3ClO,5,H3 Cl1 O1,4.444629670836592,4.444629670836592,4.444630228757306,65.08674623462191,65.08674623462191,65.08674217710374,trig,R3m,0.0,-4.543942884000001,-1.14754348775,0.0,True,1.3114516070432551,5.5013000000000005,True,68.97691918243432,,
mp-34078,H3ClO,5,H3 Cl1 O1,4.040726660308461,4.040727609570327,4.040728367494486,72.62067859740591,72.62067608232071,72.62065901299401,trig,R3m,9.4e-06,-4.538108738,-1.14170934175,0.005834146,False,1.546911483066578,5.3864,True,58.477742586388715,,
mp-1181751,H3NCl,40,H3 N1 Cl1,10.12375459134515,10.465611174740728,6.948137932366196,91.35170445372637,94.1129350594994,109.71699880845675,tri,P1,1.9997492000000001,-4.42036639375,-0.345903649499999,0.37133498691666506,False,1.009973383297166,0.8704000000000001,False,690.322630310663,,
mp-1200750,H3NCl,40,H3 N1 Cl1,7.9112279999999995,7.9112279999999995,7.9112279999999995,90.0,90.0,90.0,cubic,Pa-3,5.13e-05,-4.724293007,-0.649830262749999,0.06740837366666501,False,1.4080897478068821,5.1807,False,495.1442076667122,,
mp-760361,H3NCl,40,H3 N1 Cl1,8.583808,8.583808,8.583808,90.0,90.0,90.0,cubic,Pa-3,0.0008334999999990001,-4.5727806532500015,-0.498317909,0.21892072741666502,False,1.102356468050642,2.7143,False,632.4700790610585,,
mp-626534,H3NO,20,H3 N1 O1,4.723991,4.642221,7.1606629111636035,88.85495442956048,90.0,90.0,mono,P2_1,0.0006942,-5.208242629,-0.5138950157499991,0.367403519749999,False,1.3973823074975371,3.7763,False,157.00062103947695,,
mp-626542,H3NO,20,H3 N1 O1,5.251607,5.624597505617091,7.924790821352511,87.6094048911312,87.70838667653996,88.12468069797443,tri,P1,0.0,-4.769664722500001,-0.07531710925,0.805981426249998,False,0.9392495128616161,0.28750000000000003,False,233.57998817404152,,
mp-626543,H3NO,20,H3 N1 O1,5.124488,5.570499995465488,8.324174394159279,85.44119159149034,86.45030452977143,84.11241681536568,tri,P1,0.0,-5.369988580499999,-0.675640967249999,0.205657568249999,False,0.9324877662508051,2.4233000000000002,False,235.2737462591897,,
mp-27714,H3OF,20,H3 O1 F1,4.17123172,5.89213507,6.10259572,90.0,90.0,90.0,ortho,Pnma,0.0,-4.945832638000001,-1.53684478025,0.0,True,1.6837907986668772,6.7458,True,149.98630649159605,,
mp-23963,HIO3,20,H1 I1 O3,5.716437,5.890396,8.00416,90.0,90.0,90.0,ortho,P2_12_12_1,0.0,-4.849783467,-0.897171053249999,0.016353290499998,False,4.335262986437991,3.1022,False,269.5166969553945,"{'voigt': 14.741, 'reuss': 11.512, 'vrh': 13.126}","{'voigt': 12.205, 'reuss': 10.879, 'vrh': 11.542}"
mp-556216,HIO3,40,H1 I1 O3,5.689863,6.281024,15.264686,90.0,90.0,90.0,ortho,Pbca,7.740000000000001e-05,-4.84801393575,-0.8954015220000001,0.018122821749998002,False,4.283620432451907,3.0606,False,545.531883117361,,
mp-1199435,HNO3,40,H1 N1 O3,8.083698,8.69044,8.442266887186461,90.0,121.43132222824197,90.0,mono,P2_1/c,0.0259316,-6.20172886125,-0.8862634215,0.004048939999999,False,1.654142242527278,3.8973999999999993,True,506.05216324104407,,