mp_id,formula,sites,composition,a_edge (angstrom),b_edge (angstrom),c_edge (angstrom),alpha_ang (deg),beta_ang (deg),gamma_ang (deg),crystal_system,space_group,total_magnetisation (bohr),energy_per_atom (eV/atom),formation_energy (eV/atom),energy_above_hull (eV/atom),stable,density (g/cc),band_gap (eV),direct_bandgap,volume (cubic-angstrom),bulk_modulus (GPa),shear_modulus (GPa)
mp-1206341,NdSbO3,5,Nd1 Sb1 O3,4.281575,4.281575,4.281575,90.0,90.0,90.0,cubic,Pm-3m,0.00024359999999900003,-6.823705786,-2.075499448499999,0.7686863123333441,False,6.643062743880359,0.0,False,78.48933829513199,,
mp-31117,NdScO3,20,Nd1 Sc1 O3,5.58038856,5.80995328,8.02978969,90.0,90.0,90.0,ortho,Pnma,0.0,-9.0853638885,-3.896463977999999,0.0,True,6.0516723205399074,4.3025,True,260.34020981921844,,
mp-1105614,NdScS3,20,Nd1 Sc1 S3,6.50541219,7.15932821,9.582129,90.0,90.0,90.0,ortho,Pnma,0.0,-15.280555140999999,-2.296256424187498,0.0,True,4.2475956429427875,1.859299999999999,True,446.28172692860926,,
mp-1070369,NdSi3Ir,5,Nd1 Si3 Ir1,5.75777726703722,5.75777726703722,5.75777726703722,136.7249866999189,136.7249866999189,62.86146371985357,tet,I4mm,0.0,-22.483013514,-0.8632822704999991,0.0,True,7.8868148504467985,0.0,False,88.58005886046315,,
mp-1068775,NdSi3Os,5,Nd1 Si3 Os1,5.805284466107144,5.805284466107144,5.805284466107144,137.133960948424,137.133960948424,62.232001060944334,tet,I4mm,0.0,-22.40681815,-0.661911826500002,0.0,True,7.772242947407561,0.0,False,89.46130959284294,,
mp-1070321,NdSi3Rh,5,Nd1 Si3 Rh1,5.744010681801435,5.744010681801435,5.744010681801435,136.812490262649,136.812490262649,62.72668252685004,tet,I4mm,0.0,-6.479948005999999,-0.798266127499999,0.0,True,6.276996166832425,0.0,False,87.6708021163585,,
mp-1069041,NdSi3Ru,5,Nd1 Si3 Ru1,5.788725414113048,5.788725414113048,5.788725414113048,137.27784553648988,137.27784553648988,62.0108316670637,tet,I4mm,0.0,-16.94479387,-0.712026257500002,0.005464831000001001,False,6.202399317012438,0.0,False,88.23381749538274,,
mp-1206778,NdSiPt3,5,Nd1 Si1 Pt3,4.09760065,4.09760065,5.45224093,90.0,90.0,90.0,tet,P4mm,2e-07,-6.736762377999997,-1.055389293499996,0.0,True,13.741780681698948,0.0,False,91.54493038014084,,
mp-1198161,NdSn3Ru,40,Nd1 Sn3 Ru1,9.756744860029297,9.756629740031904,9.756579920024361,90.00019050445745,90.00017118290111,89.99977737480697,cubic,Pm-3n,5.2999999999999975e-06,-5.691568478750002,-0.47731537125000106,0.0,True,8.602614432331066,0.0,False,928.7575958681322,,
mp-1186324,NdTaO3,5,Nd1 Ta1 O3,4.053073,4.053073,4.053073,90.0,90.0,90.0,cubic,Pm-3m,0.0020946,-9.27075171,-2.9749601119666673,0.43785895121335006,False,9.307297227030249,0.0,False,66.58145441296672,,
mp-3119,NdTiO3,20,Nd1 Ti1 O3,5.505604,5.735775,7.854856,90.0,90.0,90.0,ortho,Pnma,3.9991034,-9.06843503,-3.566930537166667,0.042002469499996004,False,6.42952614750988,0.0,False,248.04775756381775,,
mp-1197152,NdTmS3,40,Nd1 Tm1 S3,3.93607442,10.98356558002545,21.41125345500912,78.61778890420536,90.0,90.0,mono,P2_1/m,0.0,-20.116492439749997,-2.387681535937497,0.0018880555833290001,False,5.9928615103626015,0.638999999999999,True,907.4488182593525,,
mp-977446,NdVGe3,10,Nd1 V1 Ge3,6.218310620000083,6.218447404413989,5.62042085,90.0,90.0,119.99928166870224,hex_,P6_3/mmc,3.46e-05,-6.046551213999999,-0.502323800499998,0.017606004227271002,False,7.289218663158765,0.0,False,188.2161949033719,,
mp-19253,NdVO3,5,Nd1 V1 O3,3.923378,3.923378,3.923378,90.0,90.0,90.0,cubic,Pm-3m,2.0004761,-8.737238134,-2.9980508305,0.2229974875,False,6.686510488045713,0.0,False,60.39214532814181,,
mp-541129,NdVO3,20,Nd1 V1 O3,5.44723174,5.67955965,7.71246632,90.0,90.0,90.0,ortho,Pnma,7.9999996,-8.9602356215,-3.221048318000001,0.0,True,6.769493593782093,1.034099999999999,True,238.60733896143174,,
mp-1173468,NdVSb3,20,Nd1 V1 Sb3,10.007844,6.546422,8.852587,90.0,90.0,90.0,ortho,Pbcm,12.1361731,-24.193656979333326,-0.068350598833325,0.5749413090000031,False,6.418620444644308,0.0,False,579.9822844673239,,
mp-673854,NdVSb3,20,Nd1 V1 Sb3,6.244855,7.9389520000000005,10.305953,90.0,90.0,90.0,ortho,Pbcm,7.1081813,-24.531714232833327,-0.40640785233332505,0.23688405550000202,False,7.285892024198138,0.0,False,510.9444576243474,,
mp-1101702,NdZrO3,40,Nd1 Zr1 O3,6.150013,8.226357,11.316666,90.0,90.0,90.0,ortho,Pbam,0.003381099999999,-9.081503696999999,-3.4495574815,0.19998182252499602,False,6.577111695204162,0.0,False,572.5350578135857,,
mp-756246,NdZrO3,20,Nd1 Zr1 O3,7.617524479277109,7.617524479277109,7.617524479277109,120.44073972018599,120.44073972018599,89.23829665940654,tet,I-4m2,0.00012049999999900001,-9.195393210999999,-3.5634469955,0.08609230852499601,False,6.064921553203231,0.0509,False,310.4431765214905,,
mp-771131,NdZrO3,10,Nd1 Zr1 O3,5.861205630217473,5.861205630217473,5.631084114607861,61.409006863350825,61.409006863350825,89.43292890184696,mono,C2/m,0.193229799999999,-9.081454101,-3.4495078855,0.200031418524995,False,6.583441724012115,0.0,False,142.99614026070765,,
mp-8370,Ni3GeC,5,Ni3 Ge1 C1,3.808709,3.808709,3.808709,90.0,90.0,90.0,cubic,Pm-3m,0.0028379,-6.150355916,0.0880647615,0.320086342499999,False,7.836248951511916,0.0,False,55.25013919271214,"{'voigt': 187.015, 'reuss': 187.015, 'vrh': 187.015}","{'voigt': 51.092, 'reuss': 31.365, 'vrh': 41.228}"
mp-1247483,Ni3SbN,5,Ni3 Sb1 N1,3.918868,3.9313178398400965,3.9323990060714844,90.00578059761212,90.0,90.0,cubic,Pm-3m,0.001232,-14.133630737916667,0.022412838333332002,0.12410287833333301,False,8.547402603090255,0.0,False,60.58378016040618,,
mp-1017632,Ni3SnN,5,Ni3 Sn1 N1,3.908518,3.908518,3.908518,90.0,90.0,90.0,cubic,Pm-3m,0.0383507,-6.011226032000001,-0.073574104,0.080494424249999,False,8.58787432195096,0.0,False,59.708525867025564,"{'voigt': 174.329, 'reuss': 174.329, 'vrh': 174.329}","{'voigt': 46.151, 'reuss': 42.379, 'vrh': 44.265}"
mp-1209766,NiAgF3,5,Ni1 Ag1 F3,4.3472,4.3472,4.3472,90.0,90.0,90.0,cubic,Pm-3m,1.0858214,-9.345722840000004,-0.804011253500004,0.984853386000001,False,4.518644108778625,0.0,False,82.154028290048,,
mp-998365,NiAgF3,5,Ni1 Ag1 F3,4.003954,4.003954,4.003954,90.0,90.0,90.0,cubic,Pm-3m,2.0044072,-10.278846568000004,-1.7371349815000041,0.051729658000001004,False,5.783220649807447,0.0,False,64.1899796712093,,
mp-998429,NiAgF3,10,Ni1 Ag1 F3,5.673142485882229,5.673142485882229,7.633911,90.0,90.0,148.82498592640385,ortho,Cmcm,4.0,-10.305108070000005,-1.7633964835000042,0.025468156000000002,False,5.837581960504137,0.761,False,127.18444673047424,,
mp-976763,NiAsO3,5,Ni1 As1 O3,3.696374999999999,3.696374999999999,3.696374999999999,90.0,90.0,90.0,cubic,Pm-3m,0.9980026999999991,-5.583455896,-0.5246274505,1.013732004375006,False,5.97129373706661,0.0,False,50.50426706330274,,
mp-1105718,NiBiO3,20,Ni1 Bi1 O3,5.458353,5.7249911038625205,7.845574923230737,92.22669737737449,90.36464566426963,91.89383066980085,tri,P-1,7.9998930999999995,-6.2476454750000014,-1.344834674,0.020718875250002003,False,8.563711199969706,0.0,False,244.8404323740434,,
mp-23532,NiBiO3,20,Ni1 Bi1 O3,5.375657,5.733563,7.744353,90.0,90.0,90.0,ortho,Pnma,7.8532516,-6.2236733725,-1.3208625715,0.044690977750002005,False,8.78423348666736,0.0,False,238.69387762853074,,
mp-25096,NiBiO3,20,Ni1 Bi1 O3,7.84876,5.368422,5.682201537880631,89.66086380572226,90.0,90.0,mono,P2_1/m,8.0000001,-6.2361217595,-1.3333109585,0.032242590750003006,False,8.757667012498013,0.3548,False,239.41795799438046,,
mp-998363,NiBiO3,5,Ni1 Bi1 O3,3.918214636913731,3.918214636913731,3.87091793396928,89.27844766986522,89.27844766986522,88.36897960143976,mono,Cm,1.0053986,-6.129619996000001,-1.226809195,0.138744354250002,False,8.825467439361974,0.0,False,59.39466570278917,,
mp-998527,NiBiO3,10,Ni1 Bi1 O3,5.451923404903794,5.452222019079232,5.418129750179027,120.20476013115923,59.795575015502436,119.99865708204666,trig,R3,2.0017114,-6.257382958000003,-1.354572157000002,0.010981392250000001,False,9.234280393489774,0.0,False,113.53038155551553,,
mp-19147,NiCO3,10,Ni1 C1 O3,5.541078929936424,5.541075610087119,5.541064911956873,48.98950167296332,48.989536957900164,48.989444217329755,trig,R-3c,3.9999998,-7.625219773,-1.6546827355,0.0,True,4.432170194287513,0.0,False,88.94505301232424,,
mp-1246271,NiMoN3,20,Ni1 Mo1 N3,10.789869857967936,5.736937446674053,8.845699424411503,121.41306210749823,109.75840351395026,104.57527212788455,tri,P-1,0.0021727,-8.229354305,0.098769699999999,0.336908486800002,False,3.509414002735613,0.0,False,372.19982490418556,,
mp-977100,NiMoO3,5,Ni1 Mo1 O3,3.927638,3.927638,3.927638,90.0,90.0,90.0,cubic,Pm-3m,2.2563185,-7.057808574000001,-0.763874613,0.936292619999999,False,5.553437794465942,0.0,False,60.589080202351056,,
mp-1205931,NiNCl3,10,Ni1 N1 Cl3,6.276783655263259,6.276783655263259,5.696479,90.0,90.0,119.99999636635569,hex_,P6_3/mmc,8.0000006,-7.519420568749998,0.39413633600000103,0.9842359210000031,False,3.059595562321458,0.0,False,194.36204865889815,,
mp-1068795,NiNF3,5,Ni1 N1 F3,3.928836999999999,3.928836999999999,3.928836999999999,90.0,90.0,90.0,cubic,Pm-3m,2.0861023,-4.063607721999999,-0.093037456499999,1.459136968666665,False,3.551250715927236,0.0,False,60.64458568911548,,
mp-1192886,NiNF3,30,Ni1 N1 F3,5.497348847454743,5.497348847454743,14.229351,90.0,90.0,120.000010198944,hex_,P6_3/mmc,24.0112232,-4.352784230666667,-0.382213965166666,1.169960459999997,False,3.4697832368329222,0.0,False,372.4108054810208,,
mp-676040,NiPS3,10,Ni1 P1 S3,5.821405871013118,5.821405871013118,6.8959473764758386,81.97374968265734,81.97374968265734,120.02109059530882,mono,C2/m,3.998824,-5.2402692800000015,-0.5181314984285701,0.05133249977999901,False,3.177051330154746,0.0,False,194.28794119527507,,
mp-1079754,NiPSe3,10,Ni1 P1 Se3,6.163277281250374,6.163277281250374,6.932315344172538,81.51156730671514,81.51156730671514,120.03129151032192,mono,C2/m,2.3099678,-12.958043942500002,-0.17434910953273802,0.053721648999999004,False,4.979098005074669,0.0,False,217.80825323611083,,
mp-1078668,NiPbO3,10,Ni1 Pb1 O3,5.39124426749009,5.39240065883913,5.614263966283843,90.00131379542363,61.30477485007201,120.00227303250158,trig,R3c,3.9234011,-6.156655549999999,-1.289322196999998,0.0,True,8.86197135556213,0.0,False,117.63280280756855,,
mp-974108,NiPbO3,5,Ni1 Pb1 O3,3.810553999999999,3.810553999999999,3.810553999999999,90.0,90.0,90.0,cubic,Pm-3m,0.736821699999999,-5.78969708,-0.922363726999999,0.36695846999999904,False,9.420293410987233,0.0,False,55.33047026641992,,
mp-1186345,NiPdO3,5,Ni1 Pd1 O3,3.690086,3.690086,3.690086,90.0,90.0,90.0,cubic,Pm-3m,3.8199859,-5.303599806,-0.14281950499999901,0.7809306559999991,False,7.042822187086094,0.0,False,50.24692203567436,,
mp-1186112,NiPtO3,5,Ni1 Pt1 O3,3.95444,3.95444,3.95444,90.0,90.0,90.0,cubic,Pm-3m,2.3932952,-5.13982303,0.19920757300000003,1.242403566999998,False,8.10360470965608,0.0,False,61.83793399368838,,
mp-976848,NiRuO3,5,Ni1 Ru1 O3,3.717644,3.717644,3.717644,90.0,90.0,90.0,cubic,Pm-3m,3.9820249,-6.140766374,-0.161081927,1.200749331999997,False,6.714458283699392,0.0,False,51.38110012193622,,
mp-1186113,NiSbO3,5,Ni1 Sb1 O3,3.801767,3.801767,3.801767,90.0,90.0,90.0,cubic,Pm-3m,0.9890065,-5.907621585999999,-0.957017398999999,0.6628730848750041,False,6.903777905566449,0.0,False,54.94858203961168,,
mp-20460,NiSeO3,20,Ni1 Se1 O3,4.94119162000303,5.87229752001642,7.497941220018282,90.00024741488096,89.99996044791455,90.00011801418785,ortho,Pnma,7.9999976,-6.079090575,-1.25510434046875,0.0,True,5.667949949635488,0.0,False,217.56136685478137,,
mp-572987,NiSeO3,80,Ni1 Se1 O3,9.30712570054461,9.30712570054461,14.928183408225127,72.67401992785751,72.67401992785751,64.59910441273982,mono,C2/c,8.0412275,-6.013126794625,-1.189140560093749,0.065963780375,False,4.511954129829118,3.0748,True,1093.2087541890753,,
mp-754654,NiSnO3,20,Ni1 Sn1 O3,5.317042730614265,5.316915871401578,9.924700819038376,90.0026294561421,74.45697111206131,119.99823293735327,trig,R-3,1.7e-06,-6.652262607,-1.725544296999999,0.026179026,False,6.479306138127836,1.7717,False,231.0668176468014,,
mp-1209810,NiTeO3,20,Ni1 Te1 O3,5.26689,5.999317,7.582289,90.0,90.0,90.0,ortho,Pnma,7.9992711,-6.125591271,-1.372126153333333,0.046346222333334006,False,6.495452555279583,2.5735,False,239.58321700617805,,
mp-1209979,NiTeO3,20,Ni1 Te1 O3,5.486615,5.618953,8.154857,90.0,90.0,90.0,ortho,Pnma,8.0001933,-5.8845709830000015,-1.131105865333333,0.28736651033333405,False,6.189984638537937,0.14419999999999902,False,251.4063458923953,,
mp-1210158,NiW3N,20,Ni1 W3 N1,5.253211,6.174006,7.939797,90.0,90.0,90.0,ortho,Pnma,0.0065003,-35.04195779383333,0.000812400416663,0.199750458499998,False,16.100729241321968,0.0,False,257.5142645208167,,
mp-1186110,NpAlO3,5,Np1 Al1 O3,3.765853,3.765853,3.765853,90.0,90.0,90.0,cubic,Pm-3m,3.9994042,-9.598500292,-3.2910525867500002,0.042764798062499006,False,9.700305169972227,0.0,False,53.406004744739306,,
mp-977058,NpBO3,5,Np1 B1 O3,3.575258,3.575258,3.575258,90.0,90.0,90.0,cubic,Pm-3m,3.9201056,-9.156538866,-2.262327972583333,0.843248484979165,False,10.748271127965891,0.0,False,45.70062729266607,,
mp-973930,NpBeO3,5,Np1 Be1 O3,3.569773,3.569773,3.569773,90.0,90.0,90.0,cubic,Pm-3m,2.9985094,-9.27566219,-2.969447077750001,0.432417750999999,False,10.732229781422904,0.0,False,45.490614274963896,,
mp-1186320,NpHgO3,5,Np1 Hg1 O3,4.266996,4.266996,4.266996,90.0,90.0,90.0,cubic,Pm-3m,1.201394,-7.9997350879999995,-2.379468141250002,0.16150768749999803,False,10.378880578496316,0.0,False,77.6902836757368,,
mp-1186334,NpMoO3,5,Np1 Mo1 O3,4.025898,4.025898,4.025898,90.0,90.0,90.0,cubic,Pm-3m,1.2665071,-9.820242098,-2.092779536750001,0.674409527500005,False,9.694274670407033,0.0,False,65.25116984680244,,
mp-973919,NpOsO3,5,Np1 Os1 O3,3.983435,3.983435,3.983435,90.0,90.0,90.0,cubic,Pm-3m,3.569908899999999,-9.445837192,-1.642031166749999,0.9734432960000011,False,12.484699581671002,0.0,False,63.208168245276845,,
mp-1186329,NpRuO3,5,Np1 Ru1 O3,3.962522,3.962522,3.962522,90.0,90.0,90.0,cubic,Pm-3m,3.0762274,-9.274044056,-1.86083100875,0.7717826082500031,False,10.303815387836424,0.0,False,62.217858564191054,,
mp-1186349,NpSiO3,5,Np1 Si1 O3,3.782846,3.782846,3.782846,90.0,90.0,90.0,cubic,Pm-3m,4.6133301,-9.168627902,-2.5252317567500002,0.6173401541666691,False,9.604031385652947,0.0,False,54.13223823303124,,
mp-1186346,NpSnO3,5,Np1 Sn1 O3,4.159438,4.159438,4.159438,90.0,90.0,90.0,cubic,Pm-3m,4.6474596,-8.351908697999999,-1.99166178775,0.8209416810000041,False,9.315640123650487,0.0,False,71.96212269995561,,
mp-1186357,NpTaO3,5,Np1 Ta1 O3,4.038472,4.038472,4.038472,90.0,90.0,90.0,cubic,Pm-3m,4.6130015,-10.611471456,-2.6797534082166683,0.41800677632000305,False,11.74717751232452,0.0,False,65.86447407961451,,
mp-977184,NpTcO3,5,Np1 Tc1 O3,3.974724,3.974724,3.974724,90.0,90.0,90.0,cubic,Pm-3m,2.4492994,-9.671323103999999,-2.040862775750001,0.684869141750006,False,10.128028129511602,0.0,False,62.79440236587778,,
mp-977152,NpTiO3,5,Np1 Ti1 O3,3.918337,3.918337,3.918337,90.0,90.0,90.0,cubic,Pm-3m,4.2813682,-10.281836402,-3.144405459416667,0.17949956,False,9.187812747477974,0.0,False,60.159657548892305,,
mp-680932,OsPbO3,20,Os1 Pb1 O3,7.309274685719329,7.309673324649104,7.309817577255602,60.00259406740459,60.000785542510435,60.000139998494376,cubic,Fd-3m,0.00018339999999900003,-7.357330361999999,-1.400550858999998,0.0,True,10.713008599289092,0.0,False,276.1692649119691,,
mp-1189731,PBr3O,20,P1 Br3 O1,6.564227,10.251911,10.600444,90.0,90.0,90.0,ortho,Pna2_1,0.0,-4.309448914,-1.254594086928571,0.00038599400000100003,False,2.669327311270317,3.088899999999999,False,713.3661118373668,,
mp-558645,PBr3O,20,P1 Br3 O1,6.23327798,9.45171737,10.00192486,90.0,90.0,90.0,ortho,Pnma,0.0,-4.309834908000001,-1.254980080928571,0.0,True,3.231495050606776,3.0735,False,589.2652210327993,,
mp-540785,PCF3,40,P1 C1 F3,11.381078,11.381078,6.346774,90.0,90.0,90.0,tet,P4_2/nmc,0.0094295,-5.01862924875,-0.9429140646785711,1.160725881778572,False,1.6155892578122621,0.0,False,822.0908860582713,,
mp-556383,PCF3,100,P1 C1 F3,9.999739,10.075466,17.716245240780143,69.17588854226551,90.0,90.0,mono,P2_1/c,0.0003256,-5.5816849013,-1.505969717228571,0.597670229228572,False,1.990234018376031,3.2358000000000002,False,1668.3480336961156,,
mp-2015815,PCl3O,20,P1 Cl3 O1,5.84665617,9.43054642,9.21331222,90.0,90.0,90.0,ortho,Pnma,0.0,-4.768834681500009,-1.587025779428581,0.0,True,2.004851212845709,4.4933,True,507.99589223548975,"{'voigt': 2.569, 'reuss': 2.567, 'vrh': 2.568}","{'voigt': 1.38, 'reuss': 135.135, 'vrh': 68.257}"
mp-27277,PCl3O,20,P1 Cl3 O1,6.071253,9.813344,9.902843,90.0,90.0,90.0,ortho,Pna2_1,0.0,-4.765678326,-1.58386942392857,0.003156355500018,False,1.7261840533509711,4.4681,True,590.0043965137276,,
mp-753611,PCl3O,20,P1 Cl3 O1,5.969239,9.504725,12.104269,90.0,90.0,90.0,ortho,Pna2_1,0.0006654,-4.7597226070000005,-1.5779137049285712,0.009112074500018,False,1.483014023190552,4.5483,True,686.7475052446612,,
mp-1179877,PNO3,40,P1 N1 O3,6.018035,10.557824,13.898839,90.0,90.0,90.0,ortho,Pccn,0.0341371,-6.754508294999999,-1.034981437928571,0.7822034427500031,False,1.398668278442896,0.2711,True,883.0954586777689,,
mp-1197085,PNO3,40,P1 N1 O3,7.374399198587638,7.374399198587638,14.281334,90.0,90.0,90.0585430334157,ortho,Cmce,7.9800982,-6.640372720499999,-0.9208458634285711,0.8963390172500031,False,1.590378661375911,0.6745000000000001,False,776.6437232130503,,
mp-1198759,PNO3,40,P1 N1 O3,7.607523476950761,7.607523476950761,12.466894,90.0,90.0,90.27005880766136,ortho,Cmce,16.0077189,-6.2546231685,-0.5350963114285711,1.2820885692500021,False,1.71191552888157,0.080999999999999,False,721.50616315545,,
mp-1200596,PNO3,40,P1 N1 O3,8.062301,9.99505,11.449645,90.0,90.0,90.0,ortho,Pccn,15.9902093,-6.00861189825,-0.28908504117857103,1.528099839500003,False,1.338709594717894,0.3045,True,922.647906434001,,
mp-726260,PNO3,20,P1 N1 O3,4.497915,5.559655,13.246712,90.0,90.0,90.0,ortho,P2_12_12_1,8.0032194,-6.802717233999999,-1.0831903769285711,0.7339945037500031,False,1.864340353943208,1.807599999999999,False,331.25861441477997,,
mp-1195541,PPbO3,40,P1 Pb1 O3,9.189884489598006,9.189884489598006,8.195841,90.0,90.0,103.89161197938604,ortho,Cmc2_1,8.0031689,-6.762833337000001,-1.9684326149285711,0.310789518999998,False,5.657758460540187,0.0,True,671.9264895888821,,
mp-20199,PPbS3,20,P1 Pb1 S3,7.54168117,6.720128831678194,11.401766815649479,55.582337661234284,90.0,90.0,mono,P2_1/c,0.0,-5.033612315499999,-0.7249724559285691,0.0,True,4.659023174000384,2.3061,False,476.69425217727553,,
mp-20316,PPbSe3,20,P1 Pb1 Se3,7.75459885,7.04100625858777,11.915143604969364,55.47624293882019,90.0,90.0,mono,P2_1/c,0.0,-22.0560751285,-0.411696905532741,0.0,True,5.8869263836214,1.664499999999999,False,535.998094170855,,
mp-977455,PaAgO3,5,Pa1 Ag1 O3,4.3149707,4.3149707,4.3149707,90.0,90.0,90.0,cubic,Pm-3m,0.0,-8.276618826000014,-2.8303952513333472,0.0,True,7.996811026447928,0.915,True,80.34031925623562,"{'voigt': 140.937, 'reuss': 140.937, 'vrh': 140.937}","{'voigt': 51.629, 'reuss': 36.745, 'vrh': 44.187}"
mp-973877,PaBO3,5,Pa1 B1 O3,3.619435,3.619435,3.619435,90.0,90.0,90.0,cubic,Pm-3m,1.7489974,-8.444989038,-2.231474644833333,1.126952342979164,False,10.150622696223666,0.0,False,47.41571950860314,,
mp-1186392,PaBeO3,5,Pa1 Be1 O3,3.607687,3.607687,3.607687,90.0,90.0,90.0,cubic,Pm-3m,0.999246,-8.828224045999999,-3.202705433999999,0.45200992500000003,False,10.186495244797232,0.0,False,46.95550918588978,,
mp-540540,PaBr3O,10,Pa1 Br3 O1,9.077382621517565,9.077382621517565,9.88812745572726,63.0433005335613,63.0433005335613,25.546228015554036,mono,C2/m,0.0,-6.42281491,-2.542195351999999,0.0,True,5.196213010825605,1.749,False,311.0968978051449,,
mp-1186400,PaCoO3,5,Pa1 Co1 O3,3.782153,3.782153,3.782153,90.0,90.0,90.0,cubic,Pm-3m,0.989475,-8.596396256,-2.292076873,0.6302286235000041,False,10.373049902297106,0.0,False,54.1024933511181,,
mp-1186395,PaHgO3,5,Pa1 Hg1 O3,4.34288662,4.34288662,4.34288662,90.0,90.0,90.0,cubic,Pm-3m,3.6700000000000004e-05,-7.739027202,-2.799456755500001,0.0,True,9.723320530190097,0.0,False,81.90972617319578,,