mp_id,formula,sites,composition,a_edge (angstrom),b_edge (angstrom),c_edge (angstrom),alpha_ang (deg),beta_ang (deg),gamma_ang (deg),crystal_system,space_group,total_magnetisation (bohr),energy_per_atom (eV/atom),formation_energy (eV/atom),energy_above_hull (eV/atom),stable,density (g/cc),band_gap (eV),direct_bandgap,volume (cubic-angstrom),bulk_modulus (GPa),shear_modulus (GPa)
mp-1183532,CaMgO3,5,Ca1 Mg1 O3,3.945178,3.945178,3.945178,90.0,90.0,90.0,cubic,Pm-3m,2.0050385,-5.924580274,-2.228589692,0.310670067999998,False,3.039085753463809,0.0,False,61.40444465533577,,
mp-1017467,CaMnO3,5,Ca1 Mn1 O3,3.801716,3.801716,3.801716,90.0,90.0,90.0,cubic,Pm-3m,3.153875,-7.6212630180000005,-2.418963380586207,0.11654962733333601,False,4.322045985981163,0.0,False,54.946370694131424,,
mp-1188497,CaMnO3,20,Ca1 Mn1 O3,5.390920285987913,5.390920285987913,9.217627,90.0,90.0,120.0000035097547,hex_,P6_3/mmc,12.0013055,-7.618064101499999,-2.415764464086206,0.11974854383333701,False,4.094612613977578,0.0,True,231.9933662023385,,
mp-19201,CaMnO3,20,Ca1 Mn1 O3,5.333444,5.398953,7.571465,90.0,90.0,90.0,ortho,Pnma,12.0051162,-7.7027377015,-2.500438064086206,0.035074943833336,False,4.357036329648904,0.468599999999999,True,218.02043676963348,,
mp-989401,CaMoN3,10,Ca1 Mo1 N3,3.535271,4.295757,8.841433,90.0,90.0,90.0,ortho,Pmm2,1.1015774,-8.318599773999999,-0.745383128999999,0.046883455000017005,False,4.403590910704745,0.0,False,134.27188237425247,,
mp-989635,CaMoN3,10,Ca1 Mo1 N3,3.7040494959886985,6.379600388823734,6.404047547032617,104.0936233213595,106.80982293285729,90.00000429112896,mono,C2/m,0.0,-8.36548322900001,-0.792266584000009,0.0,True,4.220453189740689,0.872599999999999,False,140.0983293035419,"{'voigt': 109.968, 'reuss': 102.988, 'vrh': 106.478}","{'voigt': 48.847, 'reuss': 44.205, 'vrh': 46.526}"
mp-989649,CaMoN3,10,Ca1 Mo1 N3,3.581524,4.403808,10.178184708230294,79.05024373082773,90.0,90.0,mono,P2/m,1.1298263,-8.338714055,-0.76549741,0.026769174000015,False,3.751500797489906,0.0,False,157.61117288901912,,
mp-1045305,CaMoO3,20,Ca1 Mo1 O3,5.504775,5.730315555775004,7.986219258941993,89.80294805175943,89.89011788075194,89.27278409158889,tri,P-1,7.9998712,-8.148709528,-2.609682926999999,0.009694809500002,False,4.852260631561575,1.1411,False,251.89585819007442,,
mp-19012,CaMoO3,20,Ca1 Mo1 O3,5.42516888,5.631893147812191,7.807307135306946,89.998403288949,90.0,90.0,ortho,Pnma,7.9962501,-8.152042065,-2.613015463999999,0.006362272500002,False,5.123847720243391,1.131599999999999,False,238.54423915062335,,
mp-607467,CaMoO3,20,Ca1 Mo1 O3,5.526326,5.750526,7.915666603151626,89.38257034651026,90.0,90.0,mono,P2_1/c,8.0000755,-8.158404337499999,-2.619377736499999,0.0,True,4.859133129267733,1.105,True,251.53959017651147,,
mp-1106358,CaNCl3,20,Ca1 N1 Cl3,7.547444,7.846647,9.042313,90.0,90.0,90.0,ortho,Pnma,0.0029269,-7.783891576250001,-0.8590193635000001,0.7293612779999991,False,1.990069330767163,1.4827,True,535.505025319184,,
mp-4957,CaNbO3,20,Ca1 Nb1 O3,5.558866,5.716317,7.983121,90.0,90.0,90.0,ortho,Pnma,0.0079962,-8.547165728,-3.157008141,0.058931000750003,False,4.738824683778576,0.0,False,253.67357057356134,,
mp-1207078,CaNiH3,5,Ca1 Ni1 H3,3.50426521,3.50426521,3.50426521,90.0,90.0,90.0,cubic,Pm-3m,1e-07,-4.1553816900000005,-0.5611345147500001,0.0,True,3.9281275532268882,0.0,False,43.03193756126438,,
mp-1368210,CaNiO3,20,Ca1 Ni1 O3,5.366558,5.410364,7.553309,90.0,90.0,90.0,ortho,Pnma,0.020060099999999,-6.2955513885,-1.7696274735,0.05580526474999901,False,4.445141964557334,0.0,False,219.31057008526895,,
mp-754103,CaNiO3,10,Ca1 Ni1 O3,4.788972,5.195016148032651,5.195016,60.00000094261125,90.0,90.0,hex_,P6_3mc,2e-07,-6.278679832,-1.752755917,0.07267682124999901,False,4.354802652635339,1.2293,False,111.93005701039907,,
mp-1016900,CaOsO3,5,Ca1 Os1 O3,3.952163,3.952163,3.952163,90.0,90.0,90.0,cubic,Pm-3m,1.0544156,-7.591910918000001,-1.976540853,0.25662067559999,False,7.486303590131466,0.0,False,61.7311750736624,"{'voigt': 190.541, 'reuss': 190.541, 'vrh': 190.541}","{'voigt': 42.771, 'reuss': 33.999, 'vrh': 38.385}"
mp-1213970,CaOsO3,20,Ca1 Os1 O3,5.389272,5.638784,7.759873,90.0,90.0,90.0,ortho,Pnma,2.3866167,-7.761224283500001,-2.1458542185,0.087307310099991,False,7.839020401094235,0.0,False,235.8143206324524,,
mp-9789,CaPS3,20,Ca1 P1 S3,6.579950774831939,7.32515142,9.21303058477292,90.0,92.03948296570508,90.0,mono,P2_1/c,0.0,-9.265458472,-1.236385020282738,0.0,True,2.503227021928142,3.0848,True,443.77881771096435,,
mp-11007,CaPSe3,20,Ca1 P1 Se3,6.9091705977034215,7.58328821,9.685920495026554,90.0,92.029607141139,90.0,mono,P2_1/c,0.0,-12.846995039000001,-1.051984898032739,0.0,True,4.032846886805643,2.1335,False,507.1679981909675,,
mp-20079,CaPbO3,20,Ca1 Pb1 O3,5.67798819,5.92801194,8.17824295,90.0,90.0,90.0,ortho,Pnma,0.0,-6.285639986499999,-2.173213993499998,0.002454472999994,False,7.124821189855321,0.933199999999999,False,275.27296614002546,,
mp-12572,CaPd3C,5,Ca1 Pd3 C1,4.281632,4.281632,4.281632,90.0,90.0,90.0,cubic,Pm-3m,4.1200000000000005e-05,-5.548325868,-0.19354370749999802,0.23097491449999802,False,7.856027456047484,0.0,False,78.49247308911087,,
mp-756708,CaPrO3,20,Ca1 Pr1 O3,6.1052,6.322415,8.446265,90.0,90.0,90.0,ortho,Pnma,3.9994326,-7.3414179785,-3.012427107833333,0.175380001374999,False,4.665157857585113,0.019499999999999,False,326.0225185540034,,
mp-4784,CaPtO3,10,Ca1 Pt1 O3,3.149575090721813,5.196789836733268,7.368905550000002,89.99999908437105,90.00000259521822,107.63728474292964,ortho,Cmcm,0.0,-6.575624937000002,-1.991501694000001,0.010547281666654001,False,8.18146661006258,1.2953000000000001,False,114.94236831033714,"{'voigt': 148.396, 'reuss': 146.242, 'vrh': 147.319}","{'voigt': 73.095, 'reuss': 63.853, 'vrh': 68.474}"
mp-989606,CaReN3,20,Ca1 Re1 N3,7.343440263139998,7.343440263139998,6.214030245000838,75.0743650428184,75.0743650428184,83.70051547990073,mono,C2/c,0.0,-8.628822699999997,-0.7351132354999971,0.0,True,5.702247561747393,1.8813,False,312.5301702485125,,
mp-1016833,CaRhO3,5,Ca1 Rh1 O3,3.954209,3.954209,3.954209,90.0,90.0,90.0,cubic,Pm-3m,1.3301973,-6.678481974,-1.835723820999999,0.25733247599999903,False,5.129345954756469,0.0,False,61.82709777288515,,
mp-1078659,CaRhO3,10,Ca1 Rh1 O3,3.1131418205736985,5.142154487243004,7.297586080121481,90.00054490988366,90.00018983670334,107.61814836610932,ortho,Cmcm,1.994483799999999,-6.93581445,-2.093056296999999,0.0,True,5.696544250411836,0.0,False,111.34209089405522,,
mp-1181917,CaRhO3,20,Ca1 Rh1 O3,5.30813379,5.58872343,7.62858879,90.0,90.0,90.0,ortho,Pnma,3.9806026,-6.910787965499999,-2.068029812499998,0.0250264845,False,5.605342568377662,0.0,False,226.3073630109768,,
mp-1193602,CaRhO3,30,Ca1 Rh1 O3,3.1331254,8.87479077593977,12.453635766079026,104.1440926883894,90.0,90.0,mono,P2_1/m,0.102681399999999,-6.930684086666665,-2.087925933666666,0.005130363333334001,False,5.666693199260762,0.0,False,335.78585891720996,,
mp-1016835,CaRuO3,5,Ca1 Ru1 O3,3.929544,3.929544,3.929544,90.0,90.0,90.0,cubic,Pm-3m,1.9167293,-7.286232304,-2.061455217,0.16523339750000302,False,5.176309671364111,0.0,False,60.67733082827061,,
mp-20947,CaRuO3,20,Ca1 Ru1 O3,5.35225118,5.54761917,7.6701260300000005,90.0,90.0,90.0,ortho,Pnma,7.9989245,-7.4514657015,-2.226688614499999,0.0,True,5.51646773750719,0.0,False,227.7433091928982,,
mp-1340624,CaSbO3,20,Ca1 Sb1 O3,8.156452,5.723962,5.9245029944363266,89.74867930723728,90.0,90.0,mono,P2_1/m,2.1400000000000002e-05,-6.632514745500001,-2.4368179185,0.110777845299992,False,5.038992705300844,0.0,False,276.59592149863045,,
mp-1377563,CaSbO3,20,Ca1 Sb1 O3,5.682461,5.900124,8.164977,90.0,90.0,90.0,ortho,Pnma,0.0167741,-6.624212062000001,-2.428515235,0.11908052879999201,False,5.09139665742592,0.0,False,273.7490171218,,
mp-1183534,CaScO3,5,Ca1 Sc1 O3,4.084749,4.084749,4.084749,90.0,90.0,90.0,cubic,Pm-3m,1.0012219,-7.706464766000001,-3.070074366,0.24047543449999803,False,3.241227074842477,0.0,False,68.15474941663646,,
mp-557997,CaSeO3,20,Ca1 Se1 O3,6.39345179642068,6.694465491856851,6.80623043,90.0,90.0,102.65814086221938,mono,P2_1/c,0.0,-6.376005910500003,-2.306927035968752,0.0,True,3.9034417697445982,4.2602,False,284.23135478673646,,
mp-754140,CaSeO3,20,Ca1 Se1 O3,5.38834087,6.4287927400000004,8.34205588,90.0,90.0,90.0,ortho,Pnma,0.0,-6.354179965500002,-2.285101090968751,0.021825945000002,False,3.839388937745314,4.2625,False,288.9732091579102,,
mp-1068653,CaSi3Ir,5,Ca1 Si3 Ir1,5.762805690723411,5.762805690723411,5.762805690723411,137.3753047191988,137.3753047191988,61.86110819986085,tet,I4mm,0.0,-6.058008301999999,-0.634010671999998,0.0,True,6.05976746368529,0.0,False,86.74361441934843,,
mp-1069604,CaSi3Pt,5,Ca1 Si3 Pt1,5.75935407570608,5.75935407570608,5.75935407570608,136.90765744566238,136.90765744566238,62.58016051116473,tet,I4mm,0.0,-17.653882107999998,-0.6844212309999981,0.0,True,6.022340464506421,0.0,False,88.07321687818975,"{'voigt': 104.693, 'reuss': 103.143, 'vrh': 103.918}","{'voigt': 48.137, 'reuss': 47.502, 'vrh': 47.82}"
mp-1181886,CaSiO3,20,Ca1 Si1 O3,6.251087411920185,6.251087411920185,6.251087411920185,109.47122063449069,109.47122063449069,109.47122063449069,cubic,Im-3,0.0,-7.6592618475,-3.204301662499999,0.24374655233333403,False,4.1032428658105,3.556599999999999,False,188.03765431473482,,
mp-17552,CaSiO3,30,Ca1 Si1 O3,6.909451753255464,6.909451753255464,10.61770468502044,71.70554428757941,71.70554428757941,60.25371635541641,mono,C2/c,0.0008849,-7.882680439333334,-3.427720254333334,0.020327960500000002,False,2.8221436760360623,4.7336,False,410.09472876363435,,
mp-3382,CaSiO3,10,Ca1 Si1 O3,5.092994,5.092994,3.624190999999999,90.0,90.0,90.0,tet,P4/mbm,1.5e-06,-7.659278372,-3.204318186999999,0.24373002783333403,False,4.103785434537042,3.514599999999999,False,94.00639676203232,"{'voigt': 215.173, 'reuss': 215.043, 'vrh': 215.108}","{'voigt': 156.808, 'reuss': 132.558, 'vrh': 144.683}"
mp-3387,CaSiO3,10,Ca1 Si1 O3,5.115179345513606,5.115179345513606,5.115179345513606,120.47276062478758,120.47276062478758,89.1830866091839,tet,I4/mcm,0.0,-7.661693698,-3.206733513,0.241314701833333,False,4.106169037509772,3.6891,True,93.95182669325759,"{'voigt': 214.907, 'reuss': 214.874, 'vrh': 214.891}","{'voigt': 127.585, 'reuss': 117.164, 'vrh': 122.375}"
mp-4356,CaSiO3,20,Ca1 Si1 O3,6.250552208220646,6.250552208220646,6.250552208220646,109.47122063449069,109.47122063449069,109.47122063449069,cubic,Im-3,0.0,-7.659303525,-3.20434334,0.24370487483333303,False,4.10429697690311,3.529899999999999,False,187.989360397809,,
mp-4428,CaSiO3,30,Ca1 Si1 O3,6.740481,6.786039015396316,9.412129480334405,69.27390831624285,83.66219587095608,75.81084709041913,tri,P-1,4.8e-06,-7.880057129333334,-3.425096944333334,0.022951270500000003,False,2.965709943717648,4.733700000000001,True,390.2425615855172,"{'voigt': 78.325, 'reuss': 75.172, 'vrh': 76.748}","{'voigt': 42.776, 'reuss': 36.854, 'vrh': 39.815}"
mp-4429,CaSiO3,30,Ca1 Si1 O3,7.084383562575756,7.325270900936239,7.933160089358137,103.39798124595103,95.28069284494468,90.04923165610953,tri,P-1,0.0,-7.903008399833334,-3.4480482148333342,0.0,True,2.902926205593484,4.8413,False,398.6826269045318,"{'voigt': 93.408, 'reuss': 91.691, 'vrh': 92.549}","{'voigt': 49.832, 'reuss': 45.415, 'vrh': 47.623}"
mp-4853,CaSiO3,20,Ca1 Si1 O3,6.249192301130843,6.249192301130843,6.249192301130843,109.40349188911182,109.40349188911182,109.6067632092243,tet,I4/mmm,0.000330999999999,-7.6592837915,-3.2043236065,0.243724608333334,False,4.106994251301068,3.724199999999999,False,187.86589811423534,,
mp-5096,CaSiO3,10,Ca1 Si1 O3,5.0986447236740275,5.0986447236740275,5.0986447236740275,119.92938201430496,119.68683530952012,90.33281573160623,ortho,Imma,0.0,-7.661885076999999,-3.206924891999999,0.241123322833335,False,4.104358864003566,3.6753,True,93.99326291098973,,
mp-560885,CaSiO3,20,Ca1 Si1 O3,5.101694,5.115749,7.206447,90.0,90.0,90.0,ortho,Pnma,0.0,-7.6617654905,-3.206805305499999,0.24124290933333403,False,4.102298110406588,3.7183,True,188.0809592100086,,
mp-561086,CaSiO3,60,Ca1 Si1 O3,6.917114321552088,6.917114321552088,19.796271224871667,89.67195844298521,89.67195844298521,120.11036707985151,mono,C2/c,0.000108299999999,-7.882777688666667,-3.427817503666667,0.020230711166667,False,2.8251532169722333,4.707999999999999,True,819.3157372160958,,
mp-5733,CaSiO3,60,Ca1 Si1 O3,7.32539354,7.084213614505755,15.434579760132216,84.53615567008289,90.0,90.0,mono,P2_1/c,0.0,-7.902994123666668,-3.448033938666667,1.4276166666604692e-05,False,2.90304391106308,5.1355,False,797.3329242079571,"{'voigt': 93.095, 'reuss': 91.586, 'vrh': 92.34}","{'voigt': 49.302, 'reuss': 45.243, 'vrh': 47.273}"
mp-5893,CaSiO3,5,Ca1 Si1 O3,3.607964,3.607964,3.607964,90.0,90.0,90.0,cubic,Pm-3m,7.780000000000002e-05,-7.658790582,-3.203830397,0.24421781783333402,False,4.10700725534391,3.4579,False,46.96632581831585,"{'voigt': 216.044, 'reuss': 216.044, 'vrh': 216.044}","{'voigt': 160.495, 'reuss': 139.845, 'vrh': 150.17}"
mp-649676,CaSiO3,60,Ca1 Si1 O3,9.57996,8.363182,14.759968878077826,78.28884121632721,90.0,90.0,mono,P2_1/c,0.025088199999999002,-7.552646998833334,-3.097686813833334,0.350361400999999,False,1.998980788330364,3.0437,False,1157.9363364694277,,
mp-1182670,CaSnO3,10,Ca1 Sn1 O3,13.06997290769958,9.534047112700723,6.457878441324287,138.00151884695774,160.93887277786615,42.29965162764313,tri,P-1,0.000127,-5.779489395000001,-1.607678445,1.086876601500007,False,3.963406029131419,0.7363000000000001,False,173.27347287152,,
mp-4190,CaSnO3,10,Ca1 Sn1 O3,6.015841626804902,6.015841560999726,6.015841483789569,54.588867667741305,54.58886887943536,54.58886489958149,trig,R-3,0.0,-6.851495226000007,-2.679684276000007,0.014870770500000002,False,5.104684240322317,2.937899999999999,False,134.53390939302432,,
mp-4438,CaSnO3,20,Ca1 Sn1 O3,5.52398931,5.6962779,7.90708393,90.0,90.0,90.0,ortho,Pnma,0.0,-6.866365996500008,-2.694555046500007,0.0,True,5.520396786842774,2.3301,False,248.80571219239832,"{'voigt': 143.643, 'reuss': 143.103, 'vrh': 143.373}","{'voigt': 77.906, 'reuss': 77.316, 'vrh': 77.611}"
mp-546910,CaSnO3,5,Ca1 Sn1 O3,4.349933,4.349933,4.349933,90.0,90.0,90.0,cubic,Pm-3m,2.0000292,-5.416595548,-1.244784597999999,1.449770448500007,False,4.171794878843436,0.0,False,82.30907163608116,,
mp-7986,CaSnO3,5,Ca1 Sn1 O3,4.066424,4.066424,4.066424,90.0,90.0,90.0,cubic,Pm-3m,0.001027,-6.656275543999999,-2.484464593999998,0.21009045250000902,False,5.106609751710353,1.390499999999999,False,67.24159084581586,"{'voigt': 149.034, 'reuss': 149.034, 'vrh': 149.034}","{'voigt': 85.13, 'reuss': 81.284, 'vrh': 83.207}"
mp-1054609,CaSnS3,15,Ca1 Sn1 S3,6.837030788874656,6.837031,10.365285919518959,70.74310148851423,70.74310098015454,59.99999414018946,trig,R-3m,5.799999999999999e-06,-4.7039865160000005,-1.017936428499999,0.36914322525000204,False,3.273848780077953,0.0,False,387.99217183951856,,
mp-1100323,CaSnS3,20,Ca1 Sn1 S3,6.873899980017457,6.873899980017457,12.252586,90.0,90.0,119.99999980767332,hex_,P6_3/mmc,0.0008728999999990001,-4.6196888765000015,-0.9336387889999991,0.45344086475000106,False,3.377967805848391,0.0,False,501.3774637944209,,
mp-1100325,CaSnS3,5,Ca1 Sn1 S3,4.676422,4.676422,6.142467,90.0,90.0,90.0,tet,P4mm,0.013388599999999001,-4.847989588,-1.161939500499998,0.22514015325000203,False,3.15202825661609,0.0,False,134.3291361459511,,
mp-1100328,CaSnS3,15,Ca1 Sn1 S3,7.724498,7.747260026220625,7.747260026220625,120.00000022391693,90.0,90.0,hex_,P-6m2,0.0018813999999990002,-4.845566586,-1.159516498499998,0.227563155250002,False,3.163620765215991,0.0001,True,401.5107349220729,,
mp-1100329,CaSnS3,10,Ca1 Sn1 S3,3.957213050543779,7.731143547823763,8.111719,90.0,90.0,104.8285043549455,ortho,Cmcm,0.0007144,-4.912291366,-1.226241278499998,0.16083837525000202,False,3.529833715336258,0.11100000000000002,True,239.90321752509698,,
mp-1100330,CaSnS3,30,Ca1 Sn1 S3,9.313431,9.605147245303947,10.34168932509017,103.55543401331747,96.07033637801143,90.11763805726173,tri,P-1,8.250000000000004e-05,-4.964158504666667,-1.278108417166665,0.108971236583335,False,2.841746956414052,1.7213,False,893.9766403828442,,
mp-1100334,CaSnS3,5,Ca1 Sn1 S3,3.922771,5.821185788383411,5.821185788383411,91.80996880759902,90.0,90.0,ortho,Amm2,2.1e-06,-4.5978516240000005,-0.9118015364999981,0.475278117250002,False,3.186846748982581,0.0,False,132.86149795375115,,
mp-1100335,CaSnS3,30,Ca1 Sn1 S3,8.607266,8.745713548621003,11.845835907142941,69.62833062070005,83.86262971544546,76.548163107325,tri,P-1,0.0015329,-4.982966499,-1.296916411499998,0.09016324225000201,False,3.126022249189184,1.8766999999999991,True,812.6798833796337,,
mp-1100340,CaSnS3,20,Ca1 Sn1 S3,5.364158,6.700657,14.315411,90.0,90.0,90.0,ortho,P2_12_12_1,0.004626,-4.956830102,-1.270780014499998,0.11629963925000202,False,3.2915279345677853,1.584,False,514.5442982539549,,
mp-1100343,CaSnS3,20,Ca1 Sn1 S3,10.024154,5.023836,10.017108176615146,89.17073270069716,90.0,90.0,mono,Pm,0.0001641,-4.77116527,-1.085115182499998,0.30196447125000203,False,3.357687372869991,0.0,False,504.40578386183427,,
mp-1100344,CaSnS3,40,Ca1 Sn1 S3,6.805764419016352,6.805764419016352,25.424554,90.0,90.0,120.00000407329681,hex_,P6_3/mmc,0.0152094,-4.696124967,-1.010074879499998,0.377004774250002,False,3.321333836673187,0.0,False,1019.8534772836334,,
mp-1100345,CaSnS3,10,Ca1 Sn1 S3,9.368545,4.133447,6.5090380002584105,89.9994894552449,90.0,90.0,mono,P2_1,0.003132599999999,-4.96440673,-1.278356642499999,0.10872301125000201,False,3.359610981019558,0.371399999999999,False,252.0584884446196,,
mp-1100357,CaSnS3,25,Ca1 Sn1 S3,6.964365572790174,6.964365572790174,15.345785632596234,86.94957342571129,86.94957342571129,58.021289042858065,mono,C2/m,0.005418399999999,-4.8178804836,-1.131830396099999,0.255249257650002,False,3.359404694596718,0.0,False,630.1849156487176,,
mp-1100358,CaSnS3,40,Ca1 Sn1 S3,7.687584,9.261235423748227,15.561592765137538,98.72342961953903,90.0,90.0,mono,P2_1/c,0.0021511,-4.92024090025,-1.234190812749998,0.15288884100000202,False,3.093076714123663,1.3995,True,1095.1147273793472,,
mp-1100365,CaSnS3,20,Ca1 Sn1 S3,4.781983,7.854605,14.032504,90.0,90.0,90.0,ortho,Pmc2_1,0.0022672,-4.8131802415,-1.127130153999999,0.25994949975000203,False,3.21331101707679,0.0,False,527.0690954827661,,
mp-1100371,CaSnS3,30,Ca1 Sn1 S3,7.274019639805903,7.274019639805903,17.73715,90.0,90.0,124.07161241129599,ortho,Cmcm,0.0002992,-4.82186684,-1.135816752499999,0.251262901250002,False,3.267918440355781,0.2672,True,777.3925338958659,,
mp-1100375,CaSnS3,60,Ca1 Sn1 S3,9.609362,9.33216,20.061212283928306,84.50911265620442,90.0,90.0,mono,P2_1/c,0.0790826,-4.964343833333333,-1.278293745833332,0.108785907916669,False,2.837298594163399,1.7350999999999992,True,1790.7564626008498,,
mp-1100379,CaSnS3,60,Ca1 Sn1 S3,8.841258594270954,8.841258594270954,25.197478351059516,89.67706097736776,89.67706097736776,120.29425912195121,mono,C2/c,0.0356688,-4.931923421166667,-1.245873333666665,0.141206320083335,False,2.987782049879168,1.420799999999999,True,1700.5627281387194,,
mp-1100381,CaSnS3,80,Ca1 Sn1 S3,13.844849455960148,13.844849455960148,13.844849455960148,109.16578360234364,109.16578360234364,110.08383706143388,tet,I4_1/a,0.001802,-5.0061546775,-1.320104589999999,0.06697506375000101,False,3.316460042391753,0.8106999999999991,False,2042.7044615367174,,
mp-1100389,CaSnS3,10,Ca1 Sn1 S3,19.957515089318033,19.957515089318033,18.683725447614805,64.10242937413082,64.10242937413082,60.40825683037783,mono,C2,11.5698615,-2.199625215,1.486424872500001,2.8735045262500023,False,0.151652863811783,0.0442,True,5583.926635824841,,
mp-1238933,CaSnS3,20,Ca1 Sn1 S3,7.08728,7.120834,9.419872,90.0,90.0,90.0,ortho,Pmc2_1,0.0003046,-4.9400641805,-1.254014092999998,0.133065560750002,False,3.562581933360378,0.8479000000000001,True,475.39592434803626,,
mp-1331908,CaSnS3,100,Ca1 Sn1 S3,14.572635,14.572635,13.172062,90.0,90.0,90.0,tet,P4_3,0.0050021,-4.9096085689,-1.2235584813999991,0.16352117235000202,False,3.027334281154365,0.2654,False,2797.241358211792,,