mp_id,formula,sites,composition,a_edge (angstrom),b_edge (angstrom),c_edge (angstrom),alpha_ang (deg),beta_ang (deg),gamma_ang (deg),crystal_system,space_group,total_magnetisation (bohr),energy_per_atom (eV/atom),formation_energy (eV/atom),energy_above_hull (eV/atom),stable,density (g/cc),band_gap (eV),direct_bandgap,volume (cubic-angstrom),bulk_modulus (GPa),shear_modulus (GPa)
mp-998155,RbSrCl3,5,Rb1 Sr1 Cl3,5.702547705005632,5.702547705005632,5.6985918065701116,89.92488092953421,89.92488092953421,90.06517746524298,mono,Cm,0.00046219999999900005,-4.243543124,-2.5998286955000003,0.041047293250001005,False,2.5040549970421493,4.621,False,185.31235495405778,,
mp-998755,RbSrCl3,10,Rb1 Sr1 Cl3,7.67475834918836,7.674759130329126,8.402942914352874,62.827509987602845,62.82751262211728,60.000006748741136,trig,R-3,0.0,-4.283996576999999,-2.640282148499999,0.000593840250002,False,2.548223070112482,5.318,False,364.2007121581188,,
mp-1205862,RbSrI3,10,Rb1 Sr1 I3,8.266866312708844,8.266866312708844,12.14825989,90.0,90.0,146.12682793246543,ortho,Cmcm,0.0,-3.317850925000002,-1.868850923500002,0.0,True,3.974697601256468,4.0221,True,462.73132529360066,,
mp-975200,RbSrO3,5,Rb1 Sr1 O3,4.852875,4.852875,4.852875,90.0,90.0,90.0,cubic,Pm-3m,3.0,-4.862160836,-1.3587918005000001,0.45709310399999903,False,3.212277272107923,0.0,False,114.28712685110743,,
mp-1076534,RbTaO3,5,Rb1 Ta1 O3,4.07122,4.07122,4.07122,90.0,90.0,90.0,cubic,Pm-3m,0.000467099999999,-8.513938632,-2.975669705966666,0.056662273500014,False,7.737080106628416,2.002399999999999,False,67.47978870917987,,
mp-3033,RbTaO3,20,Rb1 Ta1 O3,6.430271022929446,6.4302699247336985,8.168089364543949,86.24770949076216,86.24770814035202,83.07055500469018,mono,C2/m,0.0,-8.5706009055,-3.032331979466666,0.0,True,6.252906290016969,3.5412,False,333.98647387684906,,
mp-755018,RbTaO3,5,Rb1 Ta1 O3,4.091552946670737,4.091552946670737,4.091552424737217,89.91297527556931,89.91297527556931,89.9129819094983,trig,R3m,0.0004586,-8.518033926,-2.979764999966666,0.052566979500015,False,7.622331586751525,2.5106,False,68.49564662455086,,
mp-780619,RbTaO3,20,Rb1 Ta1 O3,5.107742722773084,8.462529295404662,8.994656362167394,114.26732810103262,93.6876839305081,94.53177721278327,tri,P-1,0.0,-8.5604039975,-3.022135071466665,0.010196908000015001,False,5.9444526653315855,4.1149000000000004,False,351.3168059129707,,
mp-858693,RbTaO3,20,Rb1 Ta1 O3,9.111957,8.579852331219344,5.173779564741042,94.58254887545122,93.74137273485081,114.19379093784973,tri,P-1,0.3116478,-6.185109389,-0.6468404629666661,2.3854915165000152,False,5.711706505127834,0.0,False,365.63260409305593,,
mp-980058,RbTbO3,5,Rb1 Tb1 O3,4.535039,4.535039,4.535039,90.0,90.0,90.0,cubic,Pm-3m,1.9998475,-6.363580492,-2.271124349833333,0.258242987875,False,5.205596950118302,0.0,False,93.27023664401828,"{'voigt': 60.84, 'reuss': 60.84, 'vrh': 60.84}","{'voigt': 21.297, 'reuss': 3.8040000000000003, 'vrh': 12.55}"
mp-975190,RbTeO3,5,Rb1 Te1 O3,4.172344,4.172344,4.172344,90.0,90.0,90.0,cubic,Pm-3m,0.0003029,-5.36641869,-1.5728740938333332,0.142506813666666,False,5.96841604373481,0.0,False,72.63406049182207,"{'voigt': 122.161, 'reuss': 122.161, 'vrh': 122.161}","{'voigt': 88.842, 'reuss': 87.546, 'vrh': 88.194}"
mp-569807,RbTiBr3,10,Rb1 Ti1 Br3,7.502893942998982,7.516679307222554,6.45790275859424,89.80906724381889,90.01490505124812,119.93394190732282,hex_,P6_3/mmc,4.0000002,-4.444833228999999,-1.687460090166666,0.004297470916664,False,3.925362134670415,0.0,False,315.61866845293156,"{'voigt': 14599801.933, 'reuss': -20763232.521, 'vrh': -3081715.294}","{'voigt': 300083.506, 'reuss': 52.323, 'vrh': 150067.914}"
mp-28282,RbTiCl3,10,Rb1 Ti1 Cl3,7.231210847625646,7.232133717991939,5.7058447497396605,90.10082694245315,89.76850655199534,120.00442185821728,hex_,P6_3/mmc,2.3350699,-4.913430387000002,-2.029103173166668,0.0,True,3.080567691104509,0.0,False,258.40751370024293,,
mp-27812,RbTiI3,30,Rb1 Ti1 I3,14.13681755254449,14.13681755254449,7.009562,90.0,90.0,119.99999790593475,hex_,P6_3cm,9.1732099,-3.881694807,-1.192082020166666,0.06706768944444401,False,4.221622254024274,0.0,False,1213.1788447065912,,
mp-1114101,RbTlBr3,10,Rb1 Tl1 Br3,8.344349335893842,8.344349335893842,8.344349335893842,60.00000000000001,60.00000000000001,60.00000000000001,cubic,Fm-3m,0.0073325,-3.04419525,-1.391626091166668,0.025314895749999,False,4.280893013127343,0.9634,False,410.83026979802924,,
mp-998391,RbTlBr3,5,Rb1 Tl1 Br3,5.836054919141868,5.836054919141868,5.833034044687207,89.96607962866723,89.96607962866723,90.0074418866381,mono,Cm,0.0001549,-3.045796146,-1.393226987166668,0.023713999749999003,False,4.426227354011799,0.0,False,198.67036766260475,,
mp-998606,RbTlBr3,10,Rb1 Tl1 Br3,8.227679173770024,8.227679173770024,8.227679051741445,60.01287335284152,60.01287335284152,60.01287279723382,trig,R3c,0.0013537999999990002,-3.042998968,-1.390429809166668,0.026511177749999,False,4.464296591393343,0.0,False,393.9524168152756,,
mp-1113994,RbTlCl3,10,Rb1 Tl1 Cl3,7.9649738198651985,7.9649738198651985,7.9649738198651985,60.00000000000001,60.00000000000001,60.00000000000001,cubic,Fm-3m,0.000342099999999,-3.4100398690000002,-1.630516635166668,0.030693201729167,False,3.682701978841444,1.1539,False,357.304149731101,,
mp-1113914,RbTlF3,10,Rb1 Tl1 F3,6.688565186807711,6.688565186807711,6.688565186807711,60.00000000000001,60.00000000000001,60.00000000000001,cubic,Fm-3m,0.0,-4.297066623999998,-2.479778005666666,0.0,True,5.444177505653687,2.0588,False,211.58452184879064,,
mp-1410049,RbTlF3,5,Rb1 Tl1 F3,4.749462395921669,4.749462395921669,4.746798926371013,89.59303073843401,89.59303073843401,89.62412115951246,ortho,Amm2,0.0009934,-4.244449407999999,-2.427160789666668,0.052617215999998,False,5.379322076550187,0.0,False,107.06773809055923,,
mp-998434,RbTlF3,40,Rb1 Tl1 F3,6.644351,9.293565,13.383602,90.0,90.0,90.0,ortho,Pbam,0.0059681,-4.2553120555,-2.438023437166668,0.041754568499998,False,5.575300007304756,0.0,False,826.4335141674552,,
mp-998607,RbTlF3,5,Rb1 Tl1 F3,4.746798483163362,4.749724940487922,4.749199622870047,89.62412528810822,89.34258804606961,89.84344809926014,mono,Cm,2.6e-06,-4.24420102,-2.426912401666668,0.052865603999998005,False,5.379426316614818,0.0,False,107.06566338086313,,
mp-1114149,RbTlI3,10,Rb1 Tl1 I3,8.896216480125132,8.896216480125132,8.896216480125132,60.00000000000001,60.00000000000001,60.00000000000001,cubic,Fm-3m,0.0006416999999990001,-2.6088607440000002,-1.024051937166668,0.09122113149999901,False,4.473203211025308,0.0,False,497.8528866231676,,
mp-975179,RbTlO3,5,Rb1 Tl1 O3,4.465736,4.465736,4.465736,90.0,90.0,90.0,cubic,Pm-3m,1.9987851,-4.426606022,-0.787428181166668,0.322265231500004,False,6.299310050004164,0.0,False,89.05927106621658,,
mp-1209127,RbTmBr3,20,Rb1 Tm1 Br3,7.597736,8.098051,11.13366,90.0,90.0,90.0,ortho,Pnma,0.304029799999999,-3.9128281845,-1.838053153000001,0.16264854216666302,False,4.791081907644047,0.0,False,685.0190689917476,,
mp-1209132,RbTmI3,20,Rb1 Tm1 I3,8.243836,8.641627,11.937015,90.0,90.0,90.0,ortho,Pnma,0.481248499999999,-3.3901987055,-1.383184026000001,0.15912059449999802,False,4.960679236908071,0.0,False,850.3948079234465,,
mp-1209166,RbTmI3,20,Rb1 Tm1 I3,4.321601,10.245713,17.966225,90.0,90.0,90.0,ortho,Pnma,4.0006406,-3.4936073215,-1.486592642000001,0.055711978499998004,False,5.3029564183113,0.2353,True,795.5064183204506,,
mp-981550,RbTmO3,5,Rb1 Tm1 O3,4.455645,4.455645,4.455645,90.0,90.0,90.0,cubic,Pm-3m,1.9995024,-6.401446674000001,-2.340062960500002,0.24325029224999903,False,5.676745723585779,0.0,False,88.45690592881743,"{'voigt': 74.212, 'reuss': 74.212, 'vrh': 74.212}","{'voigt': 22.355, 'reuss': -4.88, 'vrh': 8.738}"
mp-11775,RbUO3,5,Rb1 U1 O3,4.328369569999999,4.32837261,4.32837261,90.0,90.0,90.0,cubic,Pm-3m,0.999999899999999,-8.727750539999999,-3.304585120499998,0.0,True,7.607261575621099,0.45420000000000005,False,81.09117912744907,,
mp-29314,RbVBr3,30,Rb1 V1 Br3,12.908354887457373,12.90826948460085,6.469676780013361,89.99976784558359,90.00013511358931,119.99929242601544,hex_,P6_3cm,18.0000007,-4.5439663956666685,-1.548910446166668,6.267333333376257e-05,False,4.013960029810795,0.618999999999999,False,933.5879397779928,,
mp-568136,RbVBr3,30,Rb1 V1 Br3,12.892004479109415,12.891954178181344,6.458340380163515,90.00080995182918,89.99957500087682,119.99995016279068,trig,P-3c1,17.9999996,-4.544029069000002,-1.548973119500002,0.0,True,4.031227382216596,0.607899999999999,False,929.5890108093449,,
mp-570099,RbVBr3,10,Rb1 V1 Br3,7.447926380353941,7.447937483884507,6.458353750000002,89.999998739807,90.00000321238397,119.99882901798213,hex_,P6_3/mmc,5.9999994,-4.543560219666668,-1.5485042701666671,0.000468849333334,False,4.026039563741597,0.5839000000000001,False,310.2622825941334,,
mp-23319,RbVCl3,10,Rb1 V1 Cl3,7.020596430000288,7.020593592025665,6.16212563,90.0,90.0,119.99998278563889,hex_,P6_3/mmc,6.000001,-4.993331596000002,-1.8713215715000011,0.0,True,3.065222274213907,0.40230000000000005,False,263.03230905853485,,
mp-556424,RbVF3,5,Rb1 V1 F3,4.18167212,4.18171472,4.18157622,90.0,90.0,90.0,cubic,Pm-3m,2.9999993,-6.19578712,-3.036011711,0.0,True,4.392090674799269,2.2325,False,73.12138287356564,,
mp-672346,RbVI3,30,Rb1 V1 I3,14.030140295615864,14.030140295615864,7.029792,90.0,90.0,120.00000139398377,hex_,P6_3cm,17.9931503,-4.028109695666667,-1.100814098166667,0.022228082333334002,False,4.299290887016229,0.682,False,1198.3871081265884,,
mp-1076638,RbVO3,5,Rb1 V1 O3,3.915187,3.915187,3.915187,90.0,90.0,90.0,cubic,Pm-3m,0.0015413,-7.033888604,-2.0522239725,0.357393584999999,False,5.102348844183125,0.24980000000000002,False,60.014684858942445,,
mp-19031,RbVO3,20,Rb1 V1 O3,5.319552,5.70559893,11.31629318,90.0,90.0,90.0,ortho,Pbcm,0.0,-7.391282189,-2.4096175575,0.0,True,3.566212186908948,3.0572,False,343.46341930871506,,
mp-975138,RbWO3,5,Rb1 W1 O3,4.058288,4.058288,4.058288,90.0,90.0,90.0,cubic,Pm-3m,0.9996837,-7.797455308000001,-2.0409458445,0.15323820550000603,False,7.883131844505645,0.0,False,66.83879192428014,,
mp-975173,RbYO3,5,Rb1 Y1 O3,4.543095,4.543095,4.543095,90.0,90.0,90.0,cubic,Pm-3m,2.0016888,-6.725543536000001,-2.258841818500001,0.25637094387499804,False,3.937979504429194,0.0,False,93.76817320196758,,
mp-4975,RbZnF3,30,Rb1 Zn1 F3,5.88797113182999,5.887970705322435,14.414102630000063,90.00000097671771,89.99998830368376,119.99944310832184,hex_,P6_3/mmc,0.0,-4.391544364,-2.796601446999999,0.0,True,4.785687884317538,4.0784,True,432.7648619851537,,
mp-975159,RbZnO3,5,Rb1 Zn1 O3,4.164075,4.164075,4.164075,90.0,90.0,90.0,cubic,Pm-3m,2.996542599999999,-4.297861338,-0.8810291984999991,0.418686624,False,4.573763042162006,0.0,False,72.20306426586795,,
mp-974581,ReBiO3,5,Re1 Bi1 O3,4.023439,4.023439,4.023439,90.0,90.0,90.0,cubic,Pm-3m,0.0322649,-7.447180904,-1.2107745975,0.5042800953749991,False,11.299064151299625,0.0,False,65.13167751772735,"{'voigt': 203.021, 'reuss': 203.021, 'vrh': 203.021}","{'voigt': -10.418, 'reuss': -9.31, 'vrh': -9.864}"
mp-974724,ReClO3,20,Re1 Cl1 O3,9.04782768,5.589611587256118,9.01662817819305,57.03039352860679,90.0,90.0,mono,P2_1/c,0.0,-7.685232689,-1.8571259125,0.0,True,4.681787337080834,3.5834,False,382.57011136113016,,
mp-1245819,ReMoN3,20,Re1 Mo1 N3,9.329230650075546,5.6037912621265615,8.559347889602103,109.22202065981675,90.60848190039842,122.61525482614154,tri,P-1,0.0027066,-9.580450401499998,0.08126910899999801,0.35626864896666705,False,6.226527210170414,0.0,False,345.8056894232676,,
mp-573051,ReO3F,30,Re1 O3 F1,6.08501428,6.809656731527199,10.474869216887562,89.74707039326188,90.0,90.0,mono,P2/c,0.0,-8.027162764,-2.186467526,0.0,True,5.812179655296767,3.009,False,434.0414438507405,"{'voigt': 8.648, 'reuss': 4.821, 'vrh': 6.734}","{'voigt': 7.42, 'reuss': 4.927, 'vrh': 6.173}"
mp-974511,ReSbO3,5,Re1 Sb1 O3,3.990574,3.990574,3.990574,90.0,90.0,90.0,cubic,Pm-3m,0.0113814,-7.417569643999999,-1.1333699515,0.6040472785000001,False,9.301447388489194,0.0,False,63.548617356216845,"{'voigt': 206.425, 'reuss': 206.425, 'vrh': 206.425}","{'voigt': -9.111, 'reuss': -4.792, 'vrh': -6.952}"
mp-974505,ReTeO3,5,Re1 Te1 O3,4.005481,4.005481,4.005481,90.0,90.0,90.0,cubic,Pm-3m,0.104775,-7.000024728,-0.9129641048333331,0.794627098666666,False,9.34888621163804,0.0,False,64.26344866098869,,
mp-1247323,ReWN3,20,Re1 W1 N3,3.892727317566952,8.048209003873222,9.460464011291466,101.11347826361825,115.41387753918274,102.01396775294491,tri,P-1,0.0001317,-26.22855323345833,0.00437898679167,0.306757530166667,False,11.030118563570838,0.0,False,248.14004080443965,,
mp-1246660,RhWN3,20,Rh1 W1 N3,5.962713821798678,6.4752828899653485,10.500254264070561,101.03440768253844,132.9625168028055,88.38441699379445,tri,P-1,0.196797299999999,-20.476180496375,0.101874508374999,0.380526965999997,False,7.576183379183003,0.0,False,288.2338482219053,,
mp-974337,RuPbO3,5,Ru1 Pb1 O3,4.000143,4.000143,4.000143,90.0,90.0,90.0,cubic,Pm-3m,1.7783615,-6.8713768380000015,-1.305190313,0.17602303197916402,False,9.24271593776542,0.0,False,64.0068642453909,,
mp-1209117,SNF3,20,S1 N1 F3,6.846457,7.619584,7.892592,90.0,90.0,90.0,ortho,Pnma,6.0100000000000004e-05,-4.7859340075,-1.143719164499999,0.354124786687501,False,1.662690992308413,4.2402,True,411.7340640112987,,
mp-734059,SNO3,40,S1 N1 O3,8.178549,8.333178,9.319157,90.0,90.0,90.0,ortho,Pbca,7.9990962,-5.70473074975,-0.24062668425000003,1.02383553691666,False,1.9675520034377691,0.0,False,635.1313456243124,,
mp-28109,SbAsO3,20,Sb1 As1 O3,13.18079052,4.5823657864618825,6.804263440255247,53.12739552725628,90.0,90.0,mono,P2_1/c,0.0,-6.4261552835,-1.697553925999999,0.0,True,4.943337655030774,3.509899999999999,False,328.7660241411086,,
mp-1186920,SbAuO3,5,Sb1 Au1 O3,4.002397,4.002397,4.002397,90.0,90.0,90.0,cubic,Pm-3m,0.085594499999999,-5.34703573,-0.8976824790000001,0.40225028316666506,False,9.497927454465973,0.0,False,64.11512496108023,,
mp-626182,SbHO3,20,Sb1 H1 O3,7.360286074637113,7.360286074637113,7.360286074637113,117.60664312298441,117.60664312298441,94.19794548689181,tet,I4_1/amd,0.0029606,-6.053281105,-1.57967096625,0.027953794749986,False,3.8937464969517612,1.416,False,291.3018060569421,,
mp-626218,SbHO3,20,Sb1 H1 O3,7.505387749232425,7.262888166450118,7.269138416578731,62.19084799650171,58.8640132492172,58.948192870255504,ortho,Fdd2,0.0,-6.06543491,-1.591824771249998,0.015799989749987,False,4.057188839768231,1.4139,False,279.5668211871387,,
mp-1101381,SbOF3,5,Sb1 O1 F3,5.318809158894968,5.318809158894968,5.318809158894968,138.06621855912957,134.22002000164198,63.81102294011256,ortho,Immm,1.0700000000000001e-05,-5.259147146,-2.296867316499999,0.04680568489999801,False,4.547611078717,1.4495,False,71.11374126840906,,
mp-757111,SbOF3,20,Sb1 O1 F3,6.738797,7.739072626740233,8.429646647270573,98.50379439307086,111.44393685085005,109.8959997966847,tri,P-1,7.2e-06,-5.296920475,-2.3346406455,0.009032355899998,False,3.5375683822828172,2.6517,False,365.6722388869165,,
mp-758096,SbOF3,20,Sb1 O1 F3,9.31185,9.31185,3.775778,90.0,90.0,90.0,tet,P-42_1m,0.0005371999999990001,-5.266244918,-2.3039650885,0.039707912899999004,False,3.951103804576067,1.923099999999999,False,327.3997886531662,,
mp-761759,SbOF3,20,Sb1 O1 F3,5.588086,7.501812,9.484393581324007,67.28262488035679,90.0,90.0,mono,P2_1/c,0.0,-5.2224063925,-2.260126563,0.083546438399999,False,3.527189703669574,2.6842,False,366.74822145775585,,
mp-1246386,SbPb3N,10,Sb1 Pb3 N1,7.223171320058594,7.223171320058594,7.223171320058594,93.27071903110418,116.89545287600819,119.3788583396368,ortho,Imma,0.0001508,-40.44299153425,0.29510221200000003,0.29510221200000303,False,9.201529925911283,0.0,False,273.353888585516,,
mp-1186948,SbPbO3,5,Sb1 Pb1 O3,4.216556,4.216556,4.216556,90.0,90.0,90.0,cubic,Pm-3m,7.6e-05,-6.100877602,-1.563771336999999,0.170292250609376,False,8.349657760296937,0.0,False,74.967601732332,,
mp-1186927,SbPdO3,5,Sb1 Pd1 O3,3.993414999999999,3.993414999999999,3.993414999999999,90.0,90.0,90.0,cubic,Pm-3m,1.1373264,-5.742308024,-0.9117548109999991,0.5075797387500031,False,7.201204721323514,0.0,False,63.684440061159755,,
mp-973269,SbTeO3,5,Sb1 Te1 O3,4.17312,4.17312,4.17312,90.0,90.0,90.0,cubic,Pm-3m,0.0143964,-5.277056895999999,-0.853818866333332,0.702754502124999,False,6.794326249409314,0.0,False,72.67459491171533,"{'voigt': 125.028, 'reuss': 125.028, 'vrh': 125.028}","{'voigt': 41.918, 'reuss': 39.74, 'vrh': 40.829}"
mp-4079,Sc3AlC,5,Sc3 Al1 C1,4.5094935,4.5094935,4.5094935,90.0,90.0,90.0,cubic,Pm-3m,1.0300000000000001e-05,-6.988557656,-0.5942279285000001,0.0,True,3.148222464131471,0.0,False,91.70294768893667,"{'voigt': 100.358, 'reuss': 100.358, 'vrh': 100.358}","{'voigt': 84.393, 'reuss': 84.017, 'vrh': 84.205}"
mp-10133,Sc3BPb,5,Sc3 B1 Pb1,4.67792943,4.67792943,4.67792943,90.0,90.0,90.0,cubic,Pm-3m,1.7e-06,-20.17887638,-0.613486305500001,0.0,True,5.724184047217281,0.0,False,102.36724082715106,"{'voigt': 79.042, 'reuss': 79.042, 'vrh': 79.042}","{'voigt': 66.316, 'reuss': 65.046, 'vrh': 65.681}"
mp-8577,Sc3GaC,5,Sc3 Ga1 C1,4.4743237,4.4743237,4.4743237,90.0,90.0,90.0,cubic,Pm-3m,2e-06,-6.922800604,-0.671966838,0.0,True,4.015394573452495,0.0,False,89.57404802447736,,
mp-19726,Sc3InB,5,Sc3 In1 B1,4.688983,4.688983,4.688983,90.0,90.0,90.0,cubic,Pm-3m,6.14e-05,-13.297514309499997,-0.47343298099999603,0.084548917000001,False,4.195806088921819,0.0,False,103.09461345029437,,
mp-8578,Sc3InC,5,Sc3 In1 C1,4.55061831,4.55061831,4.55062449,90.0,90.0,90.0,cubic,Pm-3m,3e-07,-6.864095883999999,-0.6670465738333321,0.0,True,4.611424323599721,0.0,False,94.2349098832803,,
mp-31055,Sc3InN,5,Sc3 In1 N1,4.46445515,4.46445824,4.46445824,90.0,90.0,90.0,cubic,Pm-3m,4.89e-05,-7.209011366000001,-1.190039605333334,0.0,True,4.920857348347714,0.0,False,88.9827850205707,"{'voigt': 96.711, 'reuss': 96.711, 'vrh': 96.711}","{'voigt': 74.373, 'reuss': 74.218, 'vrh': 74.295}"
mp-21035,Sc3PbC,5,Sc3 Pb1 C1,4.55407219,4.55407219,4.55407219,90.0,90.0,90.0,cubic,Pm-3m,7.94e-05,-7.064813689999999,-0.6770697144999991,0.0,True,6.225135998355417,0.0,False,94.44951496223662,,
mp-10139,Sc3SnB,5,Sc3 Sn1 B1,4.65396808,4.65396808,4.65396808,90.0,90.0,90.0,cubic,Pm-3m,2.3300000000000004e-05,-13.933555682,-0.6759556734999991,0.0,True,4.355337806473856,0.0,False,100.80224414382151,"{'voigt': 83.179, 'reuss': 83.179, 'vrh': 83.179}","{'voigt': 69.432, 'reuss': 67.878, 'vrh': 68.655}"
mp-16297,Sc3SnC,5,Sc3 Sn1 C1,4.53027743,4.53027743,4.53027743,90.0,90.0,90.0,cubic,Pm-3m,2.1600000000000003e-05,-7.236472258000001,-0.7893433255000001,0.0,True,4.743335711148602,0.0,False,92.97675738586938,,
mp-10140,Sc3TlB,5,Sc3 Tl1 B1,4.690238,4.690238,4.690238,90.0,90.0,90.0,cubic,Pm-3m,0.0002718,-19.36260445344444,-0.418380284944441,0.033947740222224,False,5.633904342745025,0.0,False,103.17741501239456,"{'voigt': 76.574, 'reuss': 76.574, 'vrh': 76.574}","{'voigt': 54.903, 'reuss': 54.093, 'vrh': 54.498}"
mp-4230,Sc3TlC,5,Sc3 Tl1 C1,4.54420828,4.54420828,4.54420828,90.0,90.0,90.0,cubic,Pm-3m,7.4e-06,-6.739377919999998,-0.6198689351666661,0.0,True,6.215917686929775,0.0,False,93.83712343170306,"{'voigt': 97.309, 'reuss': 97.309, 'vrh': 97.309}","{'voigt': 81.917, 'reuss': 81.78, 'vrh': 81.849}"
mp-776150,ScAgO3,10,Sc1 Ag1 O3,6.488969058662324,6.488969058662324,3.220463999999999,90.0,90.0,103.21610448187057,ortho,Cmmm,0.000268,-6.914838808000001,-2.110980848333333,0.060727018708330006,False,5.052178605566008,0.361199999999999,False,132.01168072464614,,
mp-4471,ScAlO3,20,Sc1 Al1 O3,4.97364,5.264203,7.297695,90.0,90.0,90.0,ortho,Pnma,0.00023339999999900002,-8.654007197,-3.669621607,0.028020217374999,False,4.169314922966967,4.591900000000001,False,191.07007935746245,"{'voigt': 208.346, 'reuss': 203.189, 'vrh': 205.767}","{'voigt': 118.698, 'reuss': 114.321, 'vrh': 116.509}"
mp-973156,ScAsO3,5,Sc1 As1 O3,3.942009,3.942009,3.942009,90.0,90.0,90.0,cubic,Pm-3m,0.052524799999999004,-6.919006668,-1.7497117375000002,1.047828888374999,False,4.550762080484664,0.0,False,61.25659245178591,"{'voigt': 135.67, 'reuss': 135.67, 'vrh': 135.67}","{'voigt': 49.938, 'reuss': 41.252, 'vrh': 45.595}"