mp_id,formula,sites,composition,a_edge (angstrom),b_edge (angstrom),c_edge (angstrom),alpha_ang (deg),beta_ang (deg),gamma_ang (deg),crystal_system,space_group,total_magnetisation (bohr),energy_per_atom (eV/atom),formation_energy (eV/atom),energy_above_hull (eV/atom),stable,density (g/cc),band_gap (eV),direct_bandgap,volume (cubic-angstrom),bulk_modulus (GPa),shear_modulus (GPa)
mp-998422,CuAgF3,10,Cu1 Ag1 F3,5.513262492020246,5.513262492020246,5.513262793441195,60.93619720030405,60.93619720030405,60.93618287395639,trig,R-3c,1.9999983000000001,-9.856441633,-1.541714278500001,0.0,True,6.269244000794276,0.0,False,120.99792184569246,,
mp-1178368,CuAsO3,10,Cu1 As1 O3,3.214367,4.931474,8.974302999999999,90.0,90.0,90.0,ortho,Pmma,0.0021135,-5.997871351,-1.2752289075,0.078447758500002,False,4.353167165920575,0.0,False,142.25676785804905,,
mp-776320,CuAsO3,10,Cu1 As1 O3,5.787770910941275,5.787770910941275,5.787771350537096,51.32919718636627,51.32919718636627,51.329205581151676,trig,R-3,0.000105599999999,-5.981437807,-1.258795363499999,0.09488130250000201,False,5.676387281157805,0.0,False,109.0953559538195,"{'voigt': -4815394094049.069, 'reuss': -494.035, 'vrh': -2407697047271.552}","{'voigt': 12748855871357.418, 'reuss': -1166.242, 'vrh': 6374427935095.588}"
mp-1184042,CuBO3,5,Cu1 B1 O3,3.350959,3.350959,3.350959,90.0,90.0,90.0,cubic,Pm-3m,1.9710161,-5.821350108,-0.696853816833333,1.128113087291667,False,5.3996322964140955,0.0,False,37.627671376176025,,
mp-1184051,CuBiO3,5,Cu1 Bi1 O3,3.850057999999999,3.850057999999999,3.850057999999999,90.0,90.0,90.0,cubic,Pm-3m,0.001544,-5.659147852,-1.092523053,0.172066310062501,False,9.326284254314261,0.0,False,57.06920415385441,,
mp-1080068,CuCO3,10,Cu1 C1 O3,5.386227,2.865461,9.311091539794676,80.65199596591951,90.0,90.0,mono,P2_1,0.0484955,-6.943846078,-1.3094950425,0.12932037600000001,False,2.8937792372708593,0.0,False,141.79916399797747,,
mp-1178374,CuCO3,10,Cu1 C1 O3,4.357998999999999,4.87346738266555,6.510791549635958,72.86113302141476,72.74109277442636,67.9420661710214,tri,P-1,1.1740626,-6.9880521270000004,-1.3537010915,0.085114327,False,3.427017912911729,0.0,False,119.7354338574424,,
mp-27249,CuCO3,5,Cu1 C1 O3,4.64141824236515,4.64141824236515,3.0915367448937103,82.3263194954532,82.3263194954532,62.57684320277632,mono,Cm,0.9726378,-6.9327557760000005,-1.2984047405,0.140410678,False,3.513737235556878,0.0,False,58.39017677351736,,
mp-758727,CuCO3,45,Cu1 C1 O3,3.380512,13.834408444460681,13.841167357987223,60.19424392257465,88.81725119585411,88.79106882329891,tri,P1,3.2025246,-6.944552969999999,-1.310201934499998,0.128613484000001,False,3.288401615463208,0.0,False,561.5219370394954,,
mp-760536,CuCO3,15,Cu1 C1 O3,8.105772214722297,8.104706158006039,3.258269,90.0,90.0,119.91938359882893,hex_,P-6,1.0000012,-6.934245517333334,-1.299894481833334,0.13892093666666602,False,3.317636991847443,0.0,False,185.5245816441246,,
mp-760595,CuCO3,20,Cu1 C1 O3,6.804157,6.217696,8.255992177815214,53.16552500598536,90.0,90.0,mono,P2_1/c,3.9995296,-6.970161019,-1.335809983499999,0.103005435,False,2.935653187015727,0.0463,False,279.5531014730279,,
mp-1096939,CuGeI3,10,Cu1 Ge1 I3,7.9400960308908735,7.9400960308908735,7.9400960308908735,118.64044248532524,118.64044248532524,92.37140825691817,tet,I4/mcm,0.0007898,-2.695035615,-0.036181140999999,0.45818176866666604,False,4.756537728580233,0.08949999999999901,True,360.9060677265738,,
mp-1096949,CuGeI3,5,Cu1 Ge1 I3,6.325614739511488,6.325614739511488,4.3330967331563235,87.31819852689394,87.31819852689394,102.59197214087678,mono,Cm,0.000139,-2.898231252,-0.239376777999999,0.254986131666666,False,5.086793920521218,0.6691,False,168.73725911026125,,
mp-1181557,CuGeO3,10,Cu1 Ge1 O3,4.409282,11.702809,3.017142,90.0,90.0,90.0,ortho,Pmma,2.0006675,-6.000480524,-1.287257016,0.38385435900000203,False,3.9289610394505043,0.0,False,155.68749930553776,,
mp-1181636,CuGeO3,20,Cu1 Ge1 O3,5.025420323128504,8.253362,5.962912646997019,90.0,89.90039487191858,90.0,ortho,Pmna,4.0191709,-6.29691779,-1.583694281999999,0.08741709300000201,False,4.946527001095461,0.204099999999999,False,247.32104725819553,,
mp-1202570,CuGeO3,80,Cu1 Ge1 O3,8.69434,9.836501,11.94106,90.0,90.0,90.0,ortho,Pbam,7.9985024,-6.3117136,-1.598490092,0.07262128300000201,False,4.791829000217188,0.0,False,1021.2219494029703,,
mp-21344,CuGeO3,10,Cu1 Ge1 O3,2.980992,4.942222,8.745921,90.0,90.0,90.0,ortho,Pmma,2.0001574,-6.304190812,-1.590967304,0.08014407100000201,False,4.747258217478113,0.0,False,128.8512423547678,,
mp-554624,CuGeO3,80,Cu1 Ge1 O3,8.745921,9.884445,11.923969,90.0,90.0,90.0,ortho,Pnnm,7.9956742,-6.311836853124999,-1.598613345124999,0.072498029875003,False,4.747257339075154,0.4475,True,1030.8101295727995,,
mp-554874,CuGeO3,20,Cu1 Ge1 O3,6.855736,4.9268979999999996,6.3064193499769745,86.37590647641329,90.0,90.0,mono,P2_1/c,3.9993059,-6.2437126755,-1.530489167499999,0.140622207500002,False,5.754668539738315,0.0,False,212.5891751634234,,
mp-561216,CuGeO3,40,Cu1 Ge1 O3,7.738221037635071,7.738221037635071,8.71447,90.0,90.0,100.64867753964798,ortho,Cmce,0.0091074,-6.315592041499999,-1.602368533499999,0.06874284150000301,False,4.771033595662788,0.0,False,512.8365640996581,,
mp-1184044,CuHgO3,5,Cu1 Hg1 O3,3.83172,3.83172,3.83172,90.0,90.0,90.0,cubic,Pm-3m,0.689176599999999,-4.198000504,-0.347448159500001,0.332513582624999,False,9.213171513943983,0.0,False,56.257612521104434,,
mp-1105578,CuNCl3,20,Cu1 N1 Cl3,14.021445,4.253974,9.565677962389755,75.12722352362259,90.0,90.0,mono,P2_1/c,11.0647634,-7.118344170249998,0.568228502500002,0.970244019500004,False,2.215205715586089,0.2599,False,551.4477693987346,,
mp-1080799,CuNF3,5,Cu1 N1 F3,3.887755,3.887755,3.887755,90.0,90.0,90.0,cubic,Pm-3m,2.3233711,-3.882089021999999,-0.247704758499999,0.9402272565,False,3.802151226392999,0.0,False,58.76201311227689,,
mp-1017556,CuNi3N,5,Cu1 Ni3 N1,3.70207231,3.70208553,3.70222455,90.0,90.0,90.0,cubic,Pm-3m,1.0067557,-11.211894934,-0.027755303750001,0.0,True,8.300429841600447,0.0,False,50.7404251421085,,
mp-766856,CuPO3,40,Cu1 P1 O3,4.734167,10.856542,12.18082849427657,59.57009080370464,90.0,90.0,mono,P2_1/c,0.0004921,-6.77496752375,-1.903254881678571,0.10602788574999701,False,3.507226956343324,0.9459999999999991,False,539.814837280916,,
mp-772192,CuPO3,40,Cu1 P1 O3,5.571966,7.610752,14.085499220362832,61.95793166862554,90.0,90.0,mono,P2_1/c,9.550000000000003e-05,-6.792651254750001,-1.920938612678572,0.088344154749997,False,3.591163567301569,1.7481,False,527.1976932446773,,
mp-772255,CuPO3,30,Cu1 P1 O3,9.703327464973034,9.703327464973034,9.703328055100682,114.89621751532319,114.89621751532319,114.89621284730899,trig,R-3,0.0012668,-6.853014276666667,-1.9813016345952381,0.02798113283333,False,2.751226778649929,2.0492,False,516.1115298012884,,
mp-1105187,CuPS3,20,Cu1 P1 S3,5.31083413,5.31083413,14.90440863,90.0,90.0,90.0,tet,P4_2/mnm,0.0,-9.091445677500001,-0.300671765782739,0.0,True,3.013374958658294,1.1555,False,420.37823665904114,,
mp-1096790,CuPbBr3,10,Cu1 Pb1 Br3,7.9980250774835655,7.9980250774835655,7.9980250774835655,119.39891452046454,119.39891452046454,91.04430225372612,tet,I4/mcm,0.00046869999999900005,-3.061815378,-0.517276708999999,0.46579444949999904,False,4.644681914581931,0.0,True,364.9918192233401,,
mp-1184117,CuPbO3,5,Cu1 Pb1 O3,3.873189,3.873189,3.873189,90.0,90.0,90.0,cubic,Pm-3m,0.002785299999999,-5.448978686,-0.917831334999999,0.250703104499999,False,9.109306585560445,0.0,False,58.10400510519205,,
mp-1184073,CuPdO3,5,Cu1 Pd1 O3,3.793113,3.793113,3.793113,90.0,90.0,90.0,cubic,Pm-3m,0.002643699999999,-4.919253298,-0.09465899899999901,0.718975019,False,6.63203672746162,0.0,False,54.57419554411089,,
mp-28741,CuSe3Br,20,Cu1 Se3 Br1,4.80714032,7.58594412,14.37169294,90.0,90.0,90.0,ortho,Pmna,0.0,-3.780614000999999,-0.5358364734062491,0.0,True,4.8202027256662685,1.029899999999999,False,524.0881839571858,,
mp-29450,CuSe3I,30,Cu1 Se3 I1,9.600547099765722,9.600547099765722,9.60054715637812,95.28363138308325,95.28363138308325,95.28363111553509,trig,R-3m,0.0055615,-3.390994607,-0.168803863406249,0.12558622826562302,False,4.877756662338042,1.2273,False,872.8589664127392,,
mp-22414,CuSeO3,20,Cu1 Se1 O3,5.476776,6.151550999999999,7.306758,90.0,90.0,90.0,ortho,Pnma,4.0057562,-5.5545403285,-1.066740095968749,0.028767922499999002,False,5.140191656939322,0.0,False,246.169549747677,"{'voigt': 33.473, 'reuss': 20.768, 'vrh': 27.12}","{'voigt': 32.228, 'reuss': 24.54, 'vrh': 28.384}"
mp-22688,CuSeO3,40,Cu1 Se1 O3,5.9494453400000005,6.99177858,12.25358662,90.0,90.0,90.0,ortho,Pbca,7.9999991,-5.570611124250001,-1.08281089171875,0.012697126749998,False,4.964965888575642,0.21020000000000003,False,509.71494838145884,,
mp-554440,CuSeO3,40,Cu1 Se1 O3,8.27492805,7.7047169004399825,10.614916445622095,52.53399414595139,90.0,90.0,mono,P2_1/c,8.0000001,-5.572037847750001,-1.08423761521875,0.011270403249998001,False,4.7113123288546195,0.021500000000000002,False,537.1576229645312,,
mp-560049,CuSeO3,30,Cu1 Se1 O3,4.7310528587541425,8.673454122425982,10.579425990016116,113.04442617835515,91.7488844985664,88.98153430718511,tri,P-1,6.0,-5.580940329000001,-1.093140096468751,0.0023679219999970004,False,4.753581998234577,0.0,False,399.2858436886513,,
mp-16053,CuSiO3,10,Cu1 Si1 O3,2.860253,4.918236,8.958139,90.0,90.0,90.0,ortho,Pmma,2.0111634,-7.123297562,-2.249616019,0.091200764333335,False,3.679809081971686,0.112,False,126.01771806237532,"{'voigt': 45.23, 'reuss': 17.677, 'vrh': 31.454}","{'voigt': 33.621, 'reuss': 6.35, 'vrh': 19.986}"
mp-556982,CuSiO3,30,Cu1 Si1 O3,8.831051119906057,8.835411789751568,8.831557918534022,111.68766445721566,111.85595468324479,111.62742900726201,trig,R-3,5.9998599,-7.146320467666667,-2.272638924666667,0.068177858666668,False,2.891164803499157,0.0,False,481.17749239410796,,
mp-20977,CuTeO3,20,Cu1 Te1 O3,5.821665,6.069741,7.200504,90.0,90.0,90.0,ortho,Pnma,3.9988747,-5.632032828,-1.214753712333333,0.05940026699999901,False,6.242933004887723,0.0,False,254.4370002624723,,
mp-4320,CuTeO3,40,Cu1 Te1 O3,6.016914,7.6778189999999995,12.882924,90.0,90.0,90.0,ortho,Pnma,0.000142099999999,-5.64658909225,-1.229309976583333,0.044844002749998,False,5.337929310609811,0.0015999999999990002,True,595.1495623765578,,
mp-558696,CuTeO3,20,Cu1 Te1 O3,9.356216,5.290517,7.569102905471758,51.9350731788587,90.0,90.0,mono,P2_1/c,0.0095411,-5.656018842,-1.238739726333333,0.035414252999999,False,5.384916609662685,0.0019000000000000002,True,294.9782256150324,,
mp-29676,Dy3AlC,5,Dy3 Al1 C1,4.8703325,4.8703325,4.8703325,90.0,90.0,90.0,cubic,Pm-3m,4e-07,-5.741221931999999,-0.37534835049999604,0.0,True,7.567723145144023,0.0,False,115.52496222301356,,
mp-1017557,Dy3AlN,5,Dy3 Al1 N1,4.75093043,4.75093043,4.75093043,90.0,90.0,90.0,cubic,Pm-3m,3.0400000000000004e-05,-23.448960984000003,-1.087709248749999,0.0,True,8.183675707919214,0.0,False,107.23486581765529,,
mp-20922,Dy3GaC,5,Dy3 Ga1 C1,5.300761,5.300761,5.300761,90.0,90.0,90.0,cubic,Pm-3m,3.5600000000000005e-05,-4.02667787,1.195699750000002,1.606714689000003,False,6.346364780491208,0.0,False,148.94113867846457,,
mp-19881,Dy3InC,5,Dy3 In1 C1,4.9031569,4.9031569,4.9031569,90.0,90.0,90.0,cubic,Pm-3m,2e-06,-5.654029087999999,-0.48543592383332806,0.0,True,8.654112370917852,0.0,False,117.87653803892059,,
mp-31056,Dy3InN,5,Dy3 In1 N1,4.79206634,4.79206634,4.79206634,90.0,90.0,90.0,cubic,Pm-3m,2.8900000000000005e-05,-26.733812821999997,-1.203262676749994,0.0,True,9.300155400451702,0.0,False,110.04453130007028,,
mp-19818,Dy3PbC,5,Dy3 Pb1 C1,4.89301389,4.89301389,4.89301492,90.0,90.0,90.0,cubic,Pm-3m,9.499999999999995e-06,-5.89106458,-0.5317767504999961,0.0,True,10.017545577288024,0.0,False,117.14653225984434,,
mp-19899,Dy3SnC,5,Dy3 Sn1 C1,4.87069979,4.87069979,4.87069979,90.0,90.0,90.0,cubic,Pm-3m,3e-06,-6.039251322000001,-0.6205785354999981,0.0,True,8.884204632258188,0.0,False,115.55110070330097,,
mp-22513,Dy3TlC,5,Dy3 Tl1 C1,5.613253,5.613253,5.613253,90.0,90.0,90.0,cubic,Pm-3m,0.0046947,-3.465007923999999,1.6260449148333351,1.916393434000002,False,6.608646309530647,0.0,False,176.8657953535348,,
mp-754936,DyAlO3,10,Dy1 Al1 O3,5.237056292054344,5.237056292054344,5.23705661140578,60.91956113995696,60.91956113995696,60.9195664367884,trig,R-3c,0.0001008,-8.359551958,-3.717985083333332,0.040794404999997,False,7.607648740204467,5.165999999999999,False,103.67050239510857,,
mp-756630,DyAlO3,20,Dy1 Al1 O3,5.16840341,5.31063225,7.37199326,90.0,90.0,90.0,ortho,Pnma,0.0,-8.38752288,-3.745956005333332,0.012823482999998002,False,7.795573824413557,5.723000000000001,True,202.34271003182837,"{'voigt': 192.717, 'reuss': 191.133, 'vrh': 191.925}","{'voigt': 115.835, 'reuss': 110.806, 'vrh': 113.32}"
mp-984723,DyAlO3,5,Dy1 Al1 O3,3.711247,3.711247,3.711247,90.0,90.0,90.0,cubic,Pm-3m,0.0001489,-8.25859651,-3.617029635333332,0.141749852999998,False,7.7146473955470825,2.9483,False,51.11631980728927,,
mp-1206856,DyB3Mo,10,Dy1 B3 Mo1,3.15925114,5.430907745296047,6.840336518634167,77.83532261026687,90.0,90.0,mono,P2_1/m,0.0,-16.683111889,-0.6645428375000021,0.0,True,8.4199838937653,0.0,False,114.72848072234211,,
mp-10792,DyBO3,60,Dy1 B1 O3,7.155247077510055,8.94494849202531,9.775783951044161,81.3368932130616,85.63635558415467,77.30150089641329,tri,P-1,1e-07,-8.723935746666665,-3.495605683833332,0.028402722833334,False,7.315524466793525,5.0542,False,602.8154083542863,,
mp-12315,DyBO3,20,Dy1 B1 O3,6.106156804877642,6.356277025887171,6.352441828031061,92.32161557049456,108.475182803897,107.81187498601508,tri,P-1,0.0,-8.7523384695,-3.524008406666664,0.0,True,6.680369873198901,5.3594,True,220.0432487262976,,
mp-753318,DyBO3,10,Dy1 B1 O3,3.956124732737834,3.956124732737834,8.671067,90.0,90.0,117.35275218595487,ortho,Ama2,0.0,-8.692332451,-3.464002388166665,0.060006018499999,False,6.097586218203746,4.514,False,120.53706474895905,,
mp-10060,DyBPd3,5,Dy1 B1 Pd3,4.319571,4.319571,4.319571,90.0,90.0,90.0,cubic,Pm-3m,0.0041807,-22.302035836727278,-0.6601321862272751,0.11293425036363601,False,10.148365174039759,0.0,False,80.5975518762924,"{'voigt': 143.573, 'reuss': 143.573, 'vrh': 143.573}","{'voigt': 26.841, 'reuss': 7.187, 'vrh': 17.014}"
mp-3183,DyBRh3,5,Dy1 B1 Rh3,4.17299336,4.17299336,4.17299336,90.0,90.0,90.0,cubic,Pm-3m,0.6675759,-7.471840072000001,-0.793701890166664,0.0,True,11.014830848331043,0.0,False,72.6679788320863,"{'voigt': 183.388, 'reuss': 183.388, 'vrh': 183.388}","{'voigt': 89.122, 'reuss': 83.055, 'vrh': 86.089}"
mp-1207000,DyBiO3,5,Dy1 Bi1 O3,4.422165,4.422165,4.422165,90.0,90.0,90.0,cubic,Pm-3m,0.0003205,-6.355123798,-1.684665227333333,1.138721270000001,False,8.054787334038725,0.0,False,86.47783908075132,,
mp-22137,DyCoO3,20,Dy1 Co1 O3,5.12056865,5.41427635,7.3530512,90.0,90.0,90.0,ortho,Pnma,0.00039969999999900005,-7.927326137,-2.608191084333332,0.009307952214286,False,8.778717764311475,1.192399999999999,False,203.8572689897275,,
mp-19381,DyCrO3,20,Dy1 Cr1 O3,5.23463434,5.53590021,7.54140459,90.0,90.0,90.0,ortho,Pnma,12.0000008,-9.043801588000003,-3.220740385333334,0.0,True,7.978148620394884,2.4922,False,218.53793938887344,,
mp-1225651,DyCrS3,40,Dy1 Cr1 S3,3.70122,12.991488,16.20422,90.0,90.0,90.0,ortho,Pnnm,24.0042963,-6.9037525545000005,-1.5664522143333302,0.11556858949999901,False,5.297073140046453,0.2275,True,779.1694704678409,,
mp-1212865,DyCrSb3,20,Dy1 Cr1 Sb3,6.035755,6.202342,12.765264,90.0,90.0,90.0,ortho,Pbcm,8.3916948,-5.8569859595,-0.5253006158333321,0.019761746749998,False,8.058464254639125,0.0,False,477.87808371886956,,
mp-1212890,DyCrSe3,20,Dy1 Cr1 Se3,3.890608,8.230338,13.270285,90.0,90.0,90.0,ortho,Pnma,12.0017607,-6.3886903305,-1.436858844239582,0.037519855000001004,False,7.055572389190425,0.11660000000000001,True,424.9280463356147,,
mp-1183771,DyCuO3,5,Dy1 Cu1 O3,3.775498,3.775498,3.775498,90.0,90.0,90.0,cubic,Pm-3m,0.000404699999999,-6.945122254,-2.232829211333333,0.225766218249999,False,8.455649621541022,0.0,False,53.8174026175188,,
mp-772188,DyErO3,30,Dy1 Er1 O3,6.411861673023366,6.411861673023366,12.700567,90.0,90.0,119.99999662615927,hex_,P6_3cm,5.31e-05,-8.752872202333332,-3.946876731666664,0.084193206666668,False,8.323213850342594,3.0953,False,452.19113643002925,,
mp-22283,DyFeO3,20,Dy1 Fe1 O3,5.27661581,5.6138646,7.62092487,90.0,90.0,90.0,ortho,Pnma,20.0067112,-8.436198846,-2.849742895333331,0.0063256709999990005,False,7.836562719084112,0.9134000000000001,True,225.748611771436,,
mp-1225592,DyGa3Cu,5,Dy1 Ga3 Cu1,6.041687863254134,6.041687863254134,6.041687863254134,140.93963040666895,140.93963040666895,56.42934404991489,tet,I-4m2,0.0,-15.963445545999999,-0.532060131,0.0,True,8.318990921798845,0.0,False,86.87249651596551,,
mp-1105019,DyGa3Ru,15,Dy1 Ga3 Ru1,6.37718383,6.37718383,6.37718383,90.0,90.0,90.0,cubic,Pm-3m,6e-07,-5.180565353999994,-0.5851521268333261,0.0,True,9.080399909454497,0.0,False,259.35033224299127,,
mp-755612,DyGaO3,20,Dy1 Ga1 O3,5.307153,5.597165,7.63874,90.0,90.0,90.0,ortho,Pnma,0.0003794,-7.6296917765,-3.131620863333333,0.048170022599999,False,8.202734054916514,3.6351,True,226.90885588842502,,
mp-769015,DyGaO3,30,Dy1 Ga1 O3,6.1209879097084485,6.1209879097084485,11.7204,90.0,90.0,119.99999902407242,hex_,P6_3cm,0.0011585,-7.653000484333334,-3.154929571166667,0.024861314766665,False,7.341507102811136,2.8765,False,380.29105744080005,,
mp-1225852,DyGaSe3,20,Dy1 Ga1 Se3,3.934719,7.923808,16.254568,90.0,90.0,90.0,ortho,Pnma,0.0003651,-18.486773891749998,-1.214921918187499,0.2168113325,False,6.14828798108952,0.019099999999999003,True,506.78423662336127,,
mp-768145,DyHoO3,30,Dy1 Ho1 O3,6.423439809747111,6.423439809747111,12.747755,90.0,90.0,119.99999804045336,hex_,P6_3cm,0.0001668,-8.738186537333332,-3.926198935666664,0.09010367654166801,False,8.211602965658575,3.0556,False,455.5118362027295,,
mp-1178360,DyInO3,20,Dy1 In1 O3,5.521777,5.866607,8.191486,90.0,90.0,90.0,ortho,Pnma,0.000339799999999,-7.379810134,-2.935523676666665,0.064032906999999,False,8.143033596418817,2.622999999999999,True,265.3557805952959,,
mp-1183823,DyInO3,5,Dy1 In1 O3,4.121735,4.121735,4.121735,90.0,90.0,90.0,cubic,Pm-3m,0.0003027,-6.745079848,-2.300793390666665,0.698763192999999,False,7.714620905876316,1.5367000000000002,False,70.02291696360375,,
mp-768149,DyInO3,30,Dy1 In1 O3,6.288076839804473,6.288076821144234,12.27113037000001,89.99999556415952,90.00000378895456,120.00011731873623,hex_,P6_3cm,0.0,-7.439521238000001,-2.9952347806666673,0.004321802999998001,False,7.713574371670154,1.987099999999999,False,420.1945036650193,,
mp-756469,DyLuO3,20,Dy1 Lu1 O3,5.61251,5.876143,8.23375,90.0,90.0,90.0,ortho,Pnma,2.3100000000000002e-05,-8.785891342,-3.989102142666665,0.075312532624998,False,9.428597670172417,4.9670000000000005,True,271.54834506925243,,
mp-1232163,DyMgS3,10,Dy1 Mg1 S3,6.91811103026462,6.91811103026462,6.765345976657587,73.49576854786365,73.49576854786365,111.53975215685524,mono,C2/m,1.9998832,-5.279874477,-1.547089627833331,0.31352235,False,3.6155810959664123,0.209899999999999,False,259.9485633842165,,
mp-1232195,DyMgS3,30,Dy1 Mg1 S3,6.67677,6.6767704891087885,18.130227,90.0,90.0,119.99999757673439,trig,R-3,4.5701902,-5.359150817333333,-1.626365968166664,0.234246009666667,False,4.028283574790294,0.0,False,699.9495648052988,,
mp-1232192,DyMgSe3,20,Dy1 Mg1 Se3,7.292361964351742,12.93289,7.4955672395191675,90.0,123.76664006672364,90.0,mono,C2/m,0.0028652,-4.7245185855,-1.3772025902395821,0.343004320500003,False,4.788745909225373,0.0,False,587.665754474099,,
mp-1232257,DyMgSe3,30,Dy1 Mg1 Se3,6.908529,6.9085290818769804,19.341285,90.0,90.0,119.99999481970748,trig,R-3,2.847550199999999,-4.844564725666667,-1.4972487304062492,0.222958180333336,False,5.280271852867527,0.0,False,799.4423552836778,,
mp-1238023,DyMgSe3,10,Dy1 Mg1 Se3,7.288848066119982,7.288848066119982,6.740159698617015,73.20993485021086,73.20993485021086,110.85312216471384,mono,C2/m,0.0005721999999990001,-4.771654079,-1.424338083739582,0.295868827000004,False,4.88523970829466,0.0,False,288.02905750474,,