mp_id,formula,sites,composition,a_edge (angstrom),b_edge (angstrom),c_edge (angstrom),alpha_ang (deg),beta_ang (deg),gamma_ang (deg),crystal_system,space_group,total_magnetisation (bohr),energy_per_atom (eV/atom),formation_energy (eV/atom),energy_above_hull (eV/atom),stable,density (g/cc),band_gap (eV),direct_bandgap,volume (cubic-angstrom),bulk_modulus (GPa),shear_modulus (GPa)
mp-561922,LaCoO3,10,La1 Co1 O3,5.3795160891243246,5.378457948343857,5.456663752652129,60.09469466994305,60.28142536370549,61.540336861152795,tri,P-1,3.9748815,-7.9711760055,-2.5885146375,0.011411500499999,False,7.211992235949901,0.0,False,113.20636655932361,,
mp-573180,LaCoO3,5,La1 Co1 O3,3.816817,3.816817,3.816817,90.0,90.0,90.0,cubic,Pm-3m,3.13e-05,-7.9060387599999995,-2.523377392,0.076548746,False,7.341623228722615,0.4388,False,55.60374124701541,,
mp-570885,LaCoSb3,40,La1 Co1 Sb3,6.230947,12.199555,13.021695,90.0,90.0,90.0,ortho,Pbcm,0.020321699999999002,-5.6093224975,-0.7180369884999991,0.006437704000000001,False,7.557417965156612,0.0,False,989.8412888373421,,
mp-1068559,LaCoSi3,5,La1 Co1 Si3,5.648660140128791,5.648660140128791,5.648660140128791,136.73832699346102,136.73832699346102,62.84091213084624,tet,I4mm,4e-07,-14.487303837999999,-0.627242813999998,0.0,True,5.603306501883324,0.0,False,83.59886110531865,,
mp-13005,LaCrGe3,10,La1 Cr1 Ge3,6.174818489010687,6.174819737551973,5.9681989700001346,90.00001942884137,89.99998516642324,119.99952581535122,hex_,P6_3/mmc,4.5115273,-17.774188453,-0.487377385999997,0.0,True,6.889511272833516,0.0,False,197.07179838158342,"{'voigt': 303732.603, 'reuss': 10933.41, 'vrh': 157333.006}","{'voigt': 181518.717, 'reuss': 155.525, 'vrh': 90837.121}"
mp-989612,LaCrN3,20,La1 Cr1 N3,7.20563781904664,7.20563781904664,5.9579567182745015,78.68090126116572,78.68090126116572,90.12782870335133,mono,C2/c,0.0,-15.432453365,-0.9915784432500001,0.011596411166665,False,5.206290707670717,1.4148,False,297.1601504486527,,
mp-18841,LaCrO3,5,La1 Cr1 O3,3.927151,3.927151,3.927151,90.0,90.0,90.0,cubic,Pm-3m,2.9998346,-8.991754038,-3.105166520000001,0.091456824499999,False,6.549860163598633,1.903899999999999,False,60.56654511365902,,
mp-19281,LaCrO3,20,La1 Cr1 O3,5.505722440037202,5.519745730012443,7.78598881,90.0,90.0,90.0003322846593,ortho,Pnma,12.0000006,-9.0832108625,-3.1966233445,0.0,True,6.706217884389386,2.3706,True,236.61766314523803,,
mp-19357,LaCrO3,10,La1 Cr1 O3,5.4572005717125505,5.457200044760347,5.457496814399528,61.134429313128315,61.1344301600065,61.1354077307426,trig,R-3c,6.0000003,-9.079683344000001,-3.193095826000001,0.0035275184999980004,False,6.731708243877956,0.0,False,117.86084206710214,,
mp-10328,LaCrS3,20,La1 Cr1 S3,3.81736164,7.90286332,13.17595561,90.0,90.0,90.0,ortho,Pnma,11.9997785,-7.160736413,-1.7599097575,0.0,True,4.797413951408477,0.0,False,397.49337889168095,,
mp-19861,LaCrSb3,20,La1 Cr1 Sb3,6.324436470103657,6.218867200120641,13.383101240211143,90.00050104432222,89.9995986614435,90.00051474271872,ortho,Pbcm,11.5539986,-25.0249295085,-0.6375155514999981,0.002318738500001,False,7.018362599173952,0.0,False,526.3684866989481,,
mp-1105933,LaCrSe3,20,La1 Cr1 Se3,3.99881852,8.23863144,13.8322711,90.0,90.0,90.0,ortho,Pnma,11.9995472,-6.588914989000005,-1.573557187406255,0.0,True,6.235207301549027,0.0,False,455.701294024344,,
mp-1076070,LaCuO3,5,La1 Cu1 O3,3.871669,3.871669,3.871669,90.0,90.0,90.0,cubic,Pm-3m,0.000433599999999,-7.175454064,-2.399634706,0.024221093999999003,False,7.165968549859712,0.0,False,58.03562468331231,,
mp-3474,LaCuO3,10,La1 Cu1 O3,5.410692901130938,5.410693141826141,5.410692558088219,60.98872651217097,60.988726541306065,60.988722100937686,trig,R-3c,0.0002801,-7.199675158,-2.4238557999999992,0.0,True,7.264223278768729,0.0,False,114.50128810538682,,
mp-756272,LaDyO3,20,La1 Dy1 O3,5.941605,6.1279,8.576976,90.0,90.0,90.0,ortho,Pna2_1,0.0003784,-8.779369334,-3.899716204333333,0.040771145249999,False,7.4316784470168145,4.401499999999999,False,312.28393326480085,,
mp-7538,LaErO3,20,La1 Er1 O3,5.8770869999999995,6.076924,8.514153,90.0,90.0,90.0,ortho,Pnma,1.6400000000000002e-05,-8.808138028,-3.938616242,0.027895266250000002,False,7.736143143279784,4.4376,False,304.0796627333526,,
mp-1200571,LaErS3,40,La1 Er1 S3,4.00156755,11.0764951421363,21.610475093313323,78.68363079988107,90.0,90.0,mono,P2_1/m,0.0,-6.827999507249999,-2.444238583749997,0.0032748330833340003,False,5.690925675100202,0.759999999999999,True,939.2266311609583,,
mp-558977,LaErS3,60,La1 Er1 S3,3.99160695,16.45025474,21.4033903,90.0,90.0,90.0,ortho,Pnma,2.7000000000000002e-05,-6.831274340333334,-2.447513416833332,0.0,True,5.704815482612086,1.135899999999999,True,1405.4097717016073,,
mp-19743,LaFeGe3,5,La1 Fe1 Ge3,4.40481504893322,4.404815363223805,5.843441238958228,112.1419507887824,112.14194253124852,89.99999943332026,tet,I4mm,1.1815699,-5.985361810000009,-0.530339434000009,0.0,True,7.143409789370623,0.0,False,95.92833916469999,,
mp-1078634,LaFeO3,10,La1 Fe1 O3,5.427511549416883,5.423071091497302,5.434553664163022,61.105983714668774,60.84843943056063,60.804178103975474,trig,R-3c,6.0000002,-8.502908070000007,-2.852925804000007,0.0,True,6.982962229917882,1.950899999999999,False,115.45061726760383,,
mp-1181002,LaFeO3,20,La1 Fe1 O3,4.046154303531812,6.759937138010752,11.065070409042727,89.99330491732394,89.9991633267753,90.02750032363933,ortho,Pnma,19.9997307,-8.3961604495,-2.746178183500001,0.106747620500014,False,5.327540021179633,1.2424,False,302.64898868723105,,
mp-22590,LaFeO3,20,La1 Fe1 O3,5.600805,5.661924,7.944671,90.0,90.0,90.0,ortho,Pnma,20.0000001,-8.475136048,-2.825153782000001,0.027772022000014003,False,6.399934700878753,1.433399999999999,False,251.93610168856503,,
mp-552676,LaFeO3,5,La1 Fe1 O3,3.957176999999999,3.957176999999999,3.957176999999999,90.0,90.0,90.0,cubic,Pm-3m,4.9999528,-8.372899576,-2.722917310000001,0.13000849400001402,False,6.50503335833213,0.848399999999999,False,61.96642318273111,,
mp-605340,LaFeO3,20,La1 Fe1 O3,5.662336,6.452887,9.124399,90.0,90.0,90.0,ortho,Pmn2_1,20.0003791,-8.2110151845,-2.561032918500001,0.291892885500013,False,4.836286084147502,1.766,False,333.39107148475915,,
mp-1222853,LaGa3Cu,5,La1 Ga3 Cu1,6.059352813685823,6.059352813685823,6.059352813685823,138.9023299142987,138.9023299142987,59.523810716600835,tet,I-4m2,4.8e-06,-15.576687766000001,-0.592706954999999,0.0,True,7.181441620912353,0.0,False,95.17752940535883,,
mp-1223040,LaGa3Ni,5,La1 Ga3 Ni1,4.187477,4.187477,6.10570018039471,69.94541032309425,69.94541032309425,90.0,tet,I-4m2,0.001413599999999,-4.505865304,-0.5457789335000001,0.038196689666667005,False,7.214002508874754,0.0,False,93.63095429225571,,
mp-1222842,LaGa3Pd,5,La1 Ga3 Pd1,6.125493243212332,6.125493243212332,6.125493243212332,138.892213078565,138.892213078565,59.539243728193995,tet,I-4m2,5e-07,-18.178821936,-0.7721096029999981,0.0,True,7.672337675989548,0.0,False,98.36712809845439,,
mp-1222794,LaGa3Pt,5,La1 Ga3 Pt1,6.099497297922288,6.099497297922288,6.099497297922288,138.64681729003863,138.64681729003863,59.913798083627555,tet,I-4m2,0.0,-4.766798436000002,-0.748512737500001,0.0,True,9.19892623219072,0.0,False,98.04794994805481,,
mp-1078871,LaGaO3,10,La1 Ga1 O3,5.529890124389905,5.529890124389905,5.5298905155890745,60.78512786393576,60.78512786393576,60.785126101773535,trig,R3c,0.0003385,-7.6534813029999995,-3.0918840745,0.038595358142853003,False,7.003612573186545,3.3682,False,121.69108631106907,,
mp-1097026,LaGaO3,5,La1 Ga1 O3,3.913456,3.913456,3.913456,90.0,90.0,90.0,cubic,Pm-3m,6.7e-06,-7.595752593999999,-3.034155365499999,0.096324067142854,False,7.10999868052724,3.365900000000001,False,59.93511816444752,,
mp-1180739,LaGaO3,20,La1 Ga1 O3,5.546311,5.594213,7.850523,90.0,90.0,90.0,ortho,Pnma,0.000252799999999,-7.6545308995,-3.092933671,0.037545761642853004,False,6.997921568205891,3.2035,False,243.58010127039393,,
mp-3336,LaGaO3,10,La1 Ga1 O3,5.528593489726298,5.528593489726298,5.528592639537299,60.79416365471959,60.79416365471959,60.79416117954938,trig,R-3c,0.0002577,-7.6540056230000015,-3.0924083945,0.038071038142852,False,7.007147123944987,3.3802,False,121.62970279595109,"{'voigt': 310565302064813.44, 'reuss': 203.508, 'vrh': 155282651032508.47}","{'voigt': -1.429780315244239e+16, 'reuss': 2712.217, 'vrh': -7148901576219842.0}"
mp-556983,LaGaO3,10,La1 Ga1 O3,5.560039029462742,5.560039029462742,5.560039029462742,120.24077558781367,119.59638809152564,90.14198200621472,ortho,Imma,5.1600000000000014e-05,-7.654491901999999,-3.092894673499999,0.037584759142854,False,7.004010502481837,3.1939,False,121.68417249387791,,
mp-5837,LaGaO3,20,La1 Ga1 O3,5.559203,5.588688,7.878575,90.0,90.0,90.0,ortho,Pnma,0.0006026,-7.659527258,-3.0979300295,0.032549403142853005,False,6.9637120671375285,3.3483,False,244.776697806021,,
mp-9831,LaGaO3,5,La1 Ga1 O3,4.599907,4.599907,4.599907,90.0,90.0,90.0,cubic,Pm-3m,2.0005082,-6.24826148,-1.686664251499999,1.443815181142853,False,4.378282016363295,0.0,False,97.33009647935539,,
mp-1201646,LaGaS3,60,La1 Ga1 S3,6.07583879,10.45074162,22.04748482,90.0,90.0,90.0,ortho,Pna2_1,1e-07,-14.737903634,-1.6793929536874992,0.004735786500001,False,4.338767127764142,2.1506,False,1399.9496136472676,,
mp-4816,LaGaS3,60,La1 Ga1 S3,10.57888155,10.389923445501182,12.880819134715406,81.27400840342631,90.0,90.0,mono,P2_1/c,0.0,-14.742639420500002,-1.6841287401874991,0.0,True,4.34049606706342,2.2366,True,1399.3919751039664,,
mp-20910,LaGe3Ir,5,La1 Ge3 Ir1,4.447233155331726,4.447233477229966,5.950567292365648,111.94284067387888,111.94284116801185,90.00000201701575,tet,I4mm,0.000227,-6.257177966,-0.728472996,0.0,True,9.124986628434376,0.0,False,99.91318429076809,,
mp-1069898,LaGe3Os,5,La1 Ge3 Os1,5.98412187590947,5.98412187590947,5.98412187590947,136.35580944186827,136.35580944186827,63.4307253627456,tet,I4mm,2e-07,-6.530957877999998,-0.524466257999998,0.0,True,9.015968972367732,0.0,False,100.75533559579927,,
mp-13123,LaGe3Rh,5,La1 Ge3 Rh1,4.432189988406295,4.432189992008385,5.942181116799811,111.87258945416403,111.87259064751194,89.99589558705077,tet,I4mm,2.8e-06,-5.995537766000001,-0.7616580580000011,0.0,True,7.694293351874072,0.0,False,99.21654931768018,,
mp-1068387,LaGe3Ru,5,La1 Ge3 Ru1,5.962249336578677,5.962249336578677,5.962249336578677,136.31166924263823,136.31166924263823,63.498856030107184,tet,I4mm,0.0001423,-6.249980605999999,-0.634081964,0.0,True,7.618033069582621,0.0,False,99.80966338806229,,
mp-756166,LaHoO3,20,La1 Ho1 O3,5.883519,6.075524,8.575969,90.0,90.0,90.0,ortho,Pnma,0.000139,-8.792727639,-3.917213721999999,0.034530460124999,False,7.623295924453871,4.385499999999999,False,306.5519644743991,,
mp-770413,LaHoO3,20,La1 Ho1 O3,6.085854,6.033146,8.510631506892189,89.85699992824881,90.0,90.0,mono,P2_1/c,0.0002317,-8.746057896,-3.870543979,0.08120020312500001,False,7.478613401931692,4.236,True,312.48257074063946,,
mp-1200097,LaHoS3,40,La1 Ho1 S3,4.01058461,11.101239581816058,21.676029387808118,101.30999366014512,90.0,90.0,mono,P2_1/m,0.0,-19.807661092750003,-2.4614368194375,0.0,True,5.615525156412775,0.758799999999999,True,946.3289521611864,,
mp-1080184,LaIO3,10,La1 I1 O3,10.838552350985301,10.838552350985301,4.48483418737527,87.8212611493766,87.8212611493766,21.870108534158444,mono,C2/m,0.0012246,-6.521473916,-2.260693368999999,0.098233925999998,False,5.314343056025576,0.7893000000000001,True,196.10727813149074,,
mp-11623,LaInO3,20,La1 In1 O3,5.73615203,5.95376221,8.25417615,90.0,90.0,90.0,ortho,Pnma,0.0,-7.436104474000001,-2.9282917013333343,0.0067064522499980005,False,7.1093471335158505,2.7507,True,281.8940253530813,,
mp-1222954,LaLuC3,20,La1 Lu1 C3,7.290215705463865,7.290215705463865,7.290215705463865,109.47122063449069,109.47122063449069,109.47122063449069,cubic,I2_13,0.016279599999999003,-7.579055663,-0.150317455833334,0.11405183773333101,False,7.792188654112232,0.0,False,298.2629060246085,,
mp-22220,LaLuO3,20,La1 Lu1 O3,5.7862278400000005,5.97112351,8.32190561,90.0,90.0,90.0,ortho,Pnma,0.0,-8.848796715999999,-3.988481201333332,0.011375043874998,False,8.359650151374474,4.452500000000001,False,287.5241780269563,"{'voigt': 146.867, 'reuss': 145.232, 'vrh': 146.049}","{'voigt': 72.243, 'reuss': 71.669, 'vrh': 71.956}"
mp-1106374,LaLuS3,20,La1 Lu1 S3,6.70515075,7.33021724,9.86327545,90.0,90.0,90.0,ortho,Pnma,0.0,-20.8474945185,-2.46156299152083,0.0,True,5.618467249845161,2.232199999999999,True,484.78207567773165,,
mp-1184964,LaMgO3,5,La1 Mg1 O3,3.945789,3.945789,3.945789,90.0,90.0,90.0,cubic,Pm-3m,1.0015996,-7.22541901,-2.943346983,0.209941144749999,False,5.708989785524037,0.0,False,61.43297867320221,,
mp-1232327,LaMgS3,20,La1 Mg1 S3,8.006753203099743,11.55862,7.95803146423134,90.0,129.20672959854838,90.0,mono,C2/m,3.999672,-5.375916514,-1.579605349499999,0.40321042700000403,False,3.01919491611978,0.20089999999999902,False,570.6858006747453,,
mp-1232358,LaMgS3,30,La1 Mg1 S3,6.996812,6.996811188097904,17.617833,90.0,90.0,120.00000383853516,trig,R-3,5.1027676,-5.431638016666667,-1.6353268521666662,0.347488924333338,False,3.460158669773304,0.0,False,746.9361231107164,,
mp-1238931,LaMgS3,10,La1 Mg1 S3,7.083251953791069,7.083251953791069,4.995139842326038,82.43688942945724,82.43688942945724,106.77166487836197,mono,C2/m,0.00013419999999900002,-5.497116522000001,-1.700805357499999,0.282010419000004,False,3.680989554398753,0.0,False,234.0419121863511,,
mp-1232143,LaMgSe3,10,La1 Mg1 Se3,7.366197079539618,7.366197079539618,6.817848913104851,76.79524257227217,76.79524257227217,113.95632066213533,mono,C2/m,0.0006583,-4.841762803,-1.43092049240625,0.40255269000000204,False,4.328970918971222,0.0,False,306.9393941631012,,
mp-989554,LaMnN3,10,La1 Mn1 N3,6.430161004339238,6.430161004339238,5.327197,90.0,90.0,143.38293829260036,ortho,Cmcm,9.650000000000001e-05,-15.191424812,-0.8285514331465521,0.013571642000000002,False,5.962294418742819,0.0,False,131.3792039070709,"{'voigt': 136.407, 'reuss': 134.685, 'vrh': 135.546}","{'voigt': 53.939, 'reuss': 44.283, 'vrh': 49.111}"
mp-989589,LaMnN3,10,La1 Mn1 N3,5.907698464442437,5.907698464442437,7.030467760399364,61.81864170233074,61.81864170233074,41.23690211856423,mono,C2/m,3.9420251,-15.204996454,-0.842123075146551,0.0,True,5.609525084025504,0.0,False,139.64132122783502,,
mp-1180700,LaMnO3,20,La1 Mn1 O3,5.563543,5.565174,8.031702,90.0,90.0,90.0,ortho,Pnma,16.0,-8.755401491499999,-2.9670204090862073,0.16824439152381002,False,6.459553800722036,1.1014,False,248.67823882581766,,
mp-1180932,LaMnO3,20,La1 Mn1 O3,4.137008,5.807498,12.90489,90.0,90.0,90.0,ortho,Pnma,16.0044408,-8.293129757500001,-2.504748675086207,0.6305161255238081,False,5.180963898577695,0.5346999999999991,False,310.04857285439806,,
mp-1205375,LaMnO3,10,La1 Mn1 O3,3.995510000018146,5.5640516546282175,5.565343654956988,90.05558970925345,89.99977197094802,90.00026298340825,tet,P4/mbm,7.9998641,-8.75642981,-2.968048727586207,0.167216073023809,False,6.491650791401589,0.0,False,123.72434334359438,,
mp-1272373,LaMnO3,20,La1 Mn1 O3,5.492280274674445,5.60165728823917,8.084110000004578,90.00010076537335,90.00006674914239,89.96349914995491,ortho,Pnnm,16.0017743,-8.750783121,-2.962402038586206,0.172862762023809,False,6.458608355858248,0.5803,False,248.71464164677838,,
mp-1272996,LaMnO3,20,La1 Mn1 O3,5.550811001478072,5.714156001995221,7.882481000002537,90.00002456564043,89.99990477689026,90.00283529846253,ortho,Pbam,16.0025726,-8.7482045255,-2.959823443086208,0.17544135752380802,False,6.424936465973004,0.5975,False,250.01810854808264,,
mp-1273223,LaMnO3,20,La1 Mn1 O3,3.9393250002291005,8.82393315838113,7.9034730046351775,63.39073160203016,90.00055180689232,89.99925949291935,ortho,Cmmm,1.0212013,-8.687858434499999,-2.899477352086207,0.23578744852381,False,6.5397486258757205,0.0,False,245.62877790261717,,
mp-1273769,LaMnO3,20,La1 Mn1 O3,6.847261828936513,6.8473189539814046,6.874678699876744,70.42832012346042,69.536762636295,108.2200450396211,mono,C2/m,15.999964,-8.7477814135,-2.959400331086208,0.17586446952380802,False,6.463251287389984,0.0,False,248.53597536865314,,
mp-1278019,LaMnO3,20,La1 Mn1 O3,5.574875832749012,5.574877953426425,8.826724431533025,71.59227219897663,71.59269583611092,89.99493465641,tet,I4/mmm,16.0022643,-8.706018016,-2.9176369335862082,0.217627867023809,False,6.544321106826596,0.0,False,245.45715843443807,,
mp-1278230,LaMnO3,20,La1 Mn1 O3,5.544864957521418,7.984852815677631,5.652318173182663,89.38115011523587,90.04509009214382,91.49769420881941,tri,P-1,16.0019554,-8.7770562735,-2.988675191086207,0.146589609523809,False,6.421398049741975,0.0,False,250.1558773215623,,
mp-1278738,LaMnO3,10,La1 Mn1 O3,3.947522000067511,5.568348565469388,5.568344322812212,90.01428969307634,89.99956836003153,90.00051384569552,tet,P4/mmm,7.9999576999999995,-8.708050088,-2.9196690055862082,0.21559579502380902,False,6.561955273806483,0.0,False,122.39876650609622,,
mp-1279320,LaMnO3,20,La1 Mn1 O3,4.021440000049858,7.889233526710817,7.8228229635354785,89.61046358998173,89.99960278590574,89.99956264850553,tet,P4/m,16.0021897,-8.7524285425,-2.9640474600862072,0.17121734052380802,False,6.472475763201587,0.0,False,248.1817656076625,,
mp-1281528,LaMnO3,20,La1 Mn1 O3,3.9666720001372684,11.072240044259518,5.6991170198902745,89.99010163585133,90.00080842552568,89.99998969317289,ortho,Pmc2_1,16.0001685,-8.746746991,-2.958365908586208,0.176898892023809,False,6.417574981542556,0.07160000000000001,False,250.30489980781863,,
mp-1283081,LaMnO3,10,La1 Mn1 O3,5.582734738932346,5.581586269060257,5.5827220109898,60.00796122126946,89.97534048745919,119.9920555740369,cubic,Fm-3m,7.9999106,-8.698895915,-2.910514832586207,0.224749968023809,False,6.529256936148967,0.6151000000000001,False,123.0117361342206,,
mp-17554,LaMnO3,20,La1 Mn1 O3,5.8714300000068125,7.777420048382689,5.585996149126134,90.10098824572447,89.99992000672812,89.9998482979766,ortho,Pnma,16.0083734,-8.798112388,-3.009731305586207,0.125533495023809,False,6.297394529869173,0.0,False,255.08175724819074,,
mp-19025,LaMnO3,5,La1 Mn1 O3,3.94437,3.94437,3.94437,90.0,90.0,90.0,cubic,Pm-3m,4.000871,-8.717243282,-2.928862199586207,0.20640260102380903,False,6.544061474598911,0.0,False,61.36672420481146,,
mp-19157,LaMnO3,10,La1 Mn1 O3,5.4774826230565195,5.54643807150525,5.546199785811034,60.06374090184078,59.73993498373239,59.7389777434799,mono,C2/c,8.0128607,-8.785513627,-2.997132544586208,0.13813225602380802,False,6.7647085220922,0.0,False,118.730205264436,,
mp-19168,LaMnO3,10,La1 Mn1 O3,5.563969611810438,5.56396943207464,5.563969695308108,61.04400995604544,61.04401256989882,61.04400384642821,trig,R-3c,8.0000716,-8.782970226,-2.994589143586208,0.14067565702380902,False,6.44286948319112,0.0,False,124.66110534715935,,
mp-557795,LaMnO3,20,La1 Mn1 O3,5.971485316235904,5.433429092692937,10.413179,90.0,90.0,61.57895616556589,mono,P2_1/c,15.9994373,-8.45312061,-2.664739527586206,0.47052527302381003,False,5.406020375383018,1.4409,False,297.1410300410424,,
mp-566602,LaMnO3,20,La1 Mn1 O3,10.474801,5.716901,6.227644206365839,62.942288528788815,90.0,90.0,mono,P2_1/c,16.0003435,-8.503579954500001,-2.715198872086207,0.42006592852380803,False,4.836735523395796,1.6926,False,332.11459568010025,,
mp-645158,LaMnO3,20,La1 Mn1 O3,10.297857,5.674393,6.043189750963394,70.70900252682179,90.0,90.0,mono,P2_1/c,16.0006786,-8.502294801,-2.7139137185862072,0.42135108202380905,False,4.8195168444997165,0.9889000000000001,False,333.3011408804232,,
mp-989515,LaMoN3,5,La1 Mo1 N3,3.898316,3.898316,4.65975,90.0,90.0,90.0,tet,P4mm,0.000100499999999,-9.23118073,-1.071882640000001,0.041644898000006,False,6.492341434861131,0.0,False,70.81360396618,,
mp-989534,LaMoN3,10,La1 Mo1 N3,3.89039,5.83559,7.987789532855318,71.09462573224174,90.0,90.0,mono,P2_1/m,8.5e-05,-9.250023062,-1.090724972000001,0.022802566000006002,False,5.359535447880464,1.223799999999999,True,171.56191974186592,,
mp-989552,LaMoN3,10,La1 Mo1 N3,5.740910483804464,5.740910483804464,5.740909642433506,59.846294822834004,59.846294822834004,59.84629786031885,trig,R3c,5.2400000000000007e-05,-9.243476604,-1.084178514000001,0.029349024000007003,False,6.896652451808446,1.1509,False,133.3244203311773,,