mp_id,formula,sites,composition,a_edge (angstrom),b_edge (angstrom),c_edge (angstrom),alpha_ang (deg),beta_ang (deg),gamma_ang (deg),crystal_system,space_group,total_magnetisation (bohr),energy_per_atom (eV/atom),formation_energy (eV/atom),energy_above_hull (eV/atom),stable,density (g/cc),band_gap (eV),direct_bandgap,volume (cubic-angstrom),bulk_modulus (GPa),shear_modulus (GPa)
mp-989603,LaMoN3,10,La1 Mo1 N3,7.703679826554575,7.703679826554575,3.96224662,90.0,90.0,136.19857662945682,ortho,Ama2,0.0,-9.252489579500004,-1.093191489500006,0.020336048500002,False,5.649407490371495,0.805099999999999,False,162.75904896753863,,
mp-989631,LaMoN3,20,La1 Mo1 N3,7.386663757940202,7.386663757940202,6.3026219127681,77.01613387037203,77.01613387037203,85.99538972501755,mono,C2/c,0.0,-9.272825628000003,-1.113527538000005,0.0,True,5.63308226021011,2.0751,False,326.46148161474116,,
mp-1201689,LaNi3B,40,La1 Ni3 B1,9.603839720866493,9.603839720866493,7.160559,90.0,90.0,118.01762371560682,ortho,Cmcm,0.000299,-6.2297340795,-0.43857229633333206,0.003091421500005,False,7.423096717714481,0.0,False,583.0430278642606,,
mp-1203921,LaNi3B,40,La1 Ni3 B1,9.64092515980536,9.64092515980536,7.130319,90.0,90.0,118.56859188966371,ortho,Cmcm,0.003008,-6.23254920475,-0.44138742158333305,0.00027629625000500003,False,7.435728647093897,0.0,False,582.0525454646613,,
mp-1205795,LaNi3B,10,La1 Ni3 B1,5.9559573347220605,5.9559573347220605,5.9559573347220605,131.32244464619558,107.03040086015946,92.68385702684874,ortho,Imma,1e-07,-6.232825501000002,-0.441663717833335,0.0,True,7.567848903841644,0.0,False,142.9727535993915,,
mp-1207245,LaNiGe3,5,La1 Ni1 Ge3,4.402065011876857,4.402063041867837,5.756151096904576,112.50151741355475,112.50163046495354,89.9510354667302,tet,I4mm,2.05e-05,-5.5452621440000005,-0.628216674,0.0,True,7.355085742543899,0.0,False,93.81064214566747,,
mp-1075921,LaNiO3,5,La1 Ni1 O3,3.856999,3.856999,3.856999,90.0,90.0,90.0,cubic,Pm-3m,0.997795299999999,-7.548532023999999,-2.436526663999999,0.035178056000001005,False,7.10761180460951,0.0,False,57.378419163664574,,
mp-1278441,LaNiO3,20,La1 Ni1 O3,5.468050509620956,6.687176346989362,6.686765365106061,70.42143197335493,90.01808041213549,90.02295612370135,ortho,Cmmm,3.998122399999999,-7.540139836,-2.428134476,0.043570244,False,7.081181615450458,0.0,False,230.37032604144088,,
mp-1284950,LaNiO3,20,La1 Ni1 O3,5.433893397661845,7.718360474664811,5.55643374806593,89.90964165921346,90.12785683633167,91.57863493566099,tri,P-1,0.0001582,-7.5638215065,-2.451816146499999,0.019888573500000003,False,7.002714214091489,0.35599999999999904,False,232.95169096396123,,
mp-19339,LaNiO3,10,La1 Ni1 O3,5.3814899019586395,5.381490105994614,5.3814835613184435,60.900569472695246,60.900594946549134,60.90047372843054,trig,R-3c,1.999905,-7.58371008,-2.47170472,0.0,True,7.254091284819418,0.0,False,112.43959122238896,,
mp-569538,LaNiSb3,40,La1 Ni1 Sb3,6.266137210126756,12.231548960652846,13.016038270545126,90.00099243633576,90.00034330587103,89.99935683718552,ortho,Pbcm,0.000139,-5.385068834500001,-0.7644393335,0.0,True,7.495383444096201,0.0,False,997.6085790619535,,
mp-989564,LaOsN3,5,La1 Os1 N3,3.950555,3.950555,3.950555,90.0,90.0,90.0,cubic,Pm-3m,0.0002372,-8.794814943999999,-0.559173389999999,0.053189756000008005,False,9.996103462527321,0.0,False,61.655856812767205,"{'voigt': 243.043, 'reuss': 243.043, 'vrh': 243.043}","{'voigt': 93.869, 'reuss': 91.022, 'vrh': 92.446}"
mp-989588,LaOsN3,10,La1 Os1 N3,5.570318313283092,5.570318313283092,5.570318546334312,60.29869774393287,60.29869774393287,60.298693977258026,trig,R-3c,0.0002511,-8.811200115999998,-0.575558561999999,0.036804584000009,False,10.018076731651039,0.0,False,123.04124639492915,,
mp-989607,LaOsN3,20,La1 Os1 N3,5.574038,5.578766,7.920005,90.0,90.0,90.0,ortho,Pnma,0.000897,-8.8106647385,-0.5750231845,0.037339961500007006,False,10.009941628813205,0.0,False,246.28248460396372,,
mp-989621,LaOsN3,10,La1 Os1 N3,3.6794681000000056,5.670160900000925,6.711047450000094,90.00002693399486,90.00001055703669,89.99999993703719,ortho,Pmma,0.0,-8.848004700000004,-0.6123631460000041,0.0,True,8.803681884112583,0.0,False,140.01376512329904,,
mp-989632,LaOsN3,20,La1 Os1 N3,10.249577,4.843738,7.218384987393302,71.26044247107602,90.0,90.0,mono,P2_1/c,7.780000000000002e-05,-8.82753778,-0.591896226,0.020466920000007,False,7.264297936966237,0.027199999999999003,False,339.36841749559727,,
mp-989641,LaOsN3,10,La1 Os1 N3,4.766719,3.836983,7.4085262159375525,82.88486301976802,90.0,90.0,mono,P2_1/m,4.64e-05,-8.823106173,-0.587464618999999,0.024898527000008,False,9.167505201574674,0.0,False,134.4571527846699,,
mp-1017581,LaPd3C,5,La1 Pd3 C1,4.384889,4.384889,4.384889,90.0,90.0,90.0,cubic,Pm-3m,0.0028151,-6.130292684,-0.18942907849999902,0.46759035649998504,False,9.260488555353568,0.0,False,84.3093637881564,"{'voigt': 139.827, 'reuss': 139.822, 'vrh': 139.825}","{'voigt': -8.941, 'reuss': -227.257, 'vrh': -118.099}"
mp-16415,LaPdO3,20,La1 Pd1 O3,5.6198672011522355,5.910803860217222,7.823997521716619,90.00083175721697,90.00225172523001,89.99945814778971,ortho,Pnma,0.019214,-7.354187216999998,-2.3622328309999983,0.0,True,7.496436967402869,0.0,False,259.8970232452888,,
mp-1017582,LaPt3C,5,La1 Pt3 C1,4.406794,4.406794,4.406794,90.0,90.0,90.0,cubic,Pm-3m,0.0481778,-6.693554388,-0.21793987649999802,0.5133005671666641,False,14.284264548701186,0.0,False,85.57920512495559,"{'voigt': 164.429, 'reuss': 164.429, 'vrh': 164.429}","{'voigt': -20.302, 'reuss': 384.687, 'vrh': 182.192}"
mp-1185084,LaPtO3,5,La1 Pt1 O3,4.089271,4.089271,4.089271,90.0,90.0,90.0,cubic,Pm-3m,0.0038353,-7.186035962,-2.015831274,0.42522581756250205,False,9.276000520339739,0.0,False,68.38135116569364,,
mp-989581,LaReN3,10,La1 Re1 N3,5.577261499295278,5.577261499295278,5.577261326657076,60.28365002896041,60.28365002896041,60.28363381656946,trig,R-3c,0.0124826,-22.837473578,-0.929144192750001,0.0,True,9.875862290232625,0.0,False,123.46020168977046,,
mp-989602,LaReN3,5,La1 Re1 N3,3.95489279,3.95489279,3.95489279,90.0,90.0,90.0,cubic,Pm-3m,5.9100000000000014e-05,-22.831230786,-0.922901400750001,0.006242792000012,False,9.855255018862316,0.0,False,61.85917806687415,,
mp-989614,LaReN3,20,La1 Re1 N3,5.374654,7.063151,11.278839282466302,59.187208104668414,90.0,90.0,mono,P2_1/c,0.00015979999999900002,-22.795301544000008,-0.8869721587500091,0.042172034000003,False,6.631373963485498,1.4312,False,367.72951033262433,,
mp-1206401,LaRh3C,5,La1 Rh3 C1,4.266945,4.266945,4.266945,90.0,90.0,90.0,cubic,Pm-3m,0.000114399999999,-7.624107766,-0.3725885245,0.04808615349999901,False,9.824463710108393,0.0,False,77.68749799903784,,
mp-5163,LaRhO3,20,La1 Rh1 O3,5.50481427,5.76156261,7.90193892,90.0,90.0,90.0,ortho,Pnma,0.0,-7.973849524000007,-2.545009926000008,0.0,True,7.6807669369413905,0.5939999999999991,False,250.62051880749198,"{'voigt': 173.694, 'reuss': 173.027, 'vrh': 173.36}","{'voigt': 64.358, 'reuss': 53.201, 'vrh': 58.779}"
mp-20472,LaRuO3,20,La1 Ru1 O3,5.4764990000000004,5.913106,7.92462,90.0,90.0,90.0,ortho,Pnma,3.9931694,-8.3709623095,-2.5601037775,0.04449839449999601,False,7.453577075210139,0.0,False,256.6239132497035,,
mp-1211524,LaSb3Pd,40,La1 Sb3 Pd1,6.411182790160539,12.555809160520337,13.13921043076644,90.00098617928562,89.99925372472178,90.00033079577932,ortho,Pbcm,1e-07,-26.785665158249998,-0.820828957249995,0.0,True,7.669157229567404,0.0,False,1057.6747424664259,,
mp-1222966,LaSbSe3,20,La1 Sb1 Se3,4.118099,11.184008,12.255458,90.0,90.0,90.0,ortho,Pnma,1.4700000000000002e-05,-5.30482389,-1.39427533440625,0.033330647633333,False,5.854880930127979,0.9761000000000001,False,564.4478172687956,,
mp-1096800,LaScO3,5,La1 Sc1 O3,4.078908,4.078908,4.078908,90.0,90.0,90.0,cubic,Pm-3m,0.0012112,-8.9689534,-3.746481555,0.20408182299999902,False,5.673387093636159,2.8177000000000003,True,67.8627929880572,,
mp-31116,LaScO3,20,La1 Sc1 O3,5.68506091,5.80353077,8.10225831,90.0,90.0,90.0,ortho,Pnma,0.0,-9.173035223,-3.950563377999999,0.0,True,5.761036661691382,3.8973,True,267.32125933981513,"{'voigt': 154.331, 'reuss': 153.518, 'vrh': 153.924}","{'voigt': 79.326, 'reuss': 78.699, 'vrh': 79.013}"
mp-1190131,LaScS3,20,La1 Sc1 S3,6.58114518,7.2172255100000005,9.64897414,90.0,90.0,90.0,ortho,Pnma,0.0,-15.42371525,-2.3740622886875,0.0,True,4.058837585146462,1.6446,True,458.30319977671337,,
mp-2914,LaSi3Ir,5,La1 Si3 Ir1,4.287820484586654,4.28782014828492,5.79409969246623,111.71661251386236,111.71660392023169,90.00000711189608,tet,I4mm,1e-06,-6.87115201,-0.861072935,0.0,True,7.598248318238721,0.0,False,90.77789751532553,"{'voigt': 122.868, 'reuss': 122.696, 'vrh': 122.782}","{'voigt': 67.864, 'reuss': 67.524, 'vrh': 67.694}"
mp-1069882,LaSi3Os,5,La1 Si3 Os1,5.838141198102135,5.838141198102135,5.838141198102135,136.9314778302925,136.9314778302925,62.54349629527787,tet,I4mm,2.2e-06,-7.141586012000002,-0.6537202870000011,0.0,True,7.4892414241053125,0.0,False,91.65861762638278,,
mp-1070124,LaSi3Rh,5,La1 Si3 Rh1,5.784972992244599,5.784972992244599,5.784972992244599,136.68754764681248,136.68754764681248,62.919147979414404,tet,I4mm,2e-06,-6.555242764000002,-0.839988951000002,0.0,True,6.01866012172259,0.0,False,89.96151324914102,,
mp-1069594,LaSi3Ru,5,La1 Si3 Ru1,5.824062573025655,5.824062573025655,5.824062573025655,137.03800750013076,137.03800750013076,62.379576671588495,tet,I4mm,3.4900000000000015e-05,-6.775009485999999,-0.6777367389999991,0.0,True,5.939497870585977,0.0,False,90.64736860871403,,
mp-541249,LaSiAs3,40,La1 Si1 As3,6.012619,6.132181,26.680201,90.0,90.0,90.0,ortho,Pna2_1,0.0726791,-17.32147128375,-0.793243731250001,0.011344864999998,False,5.290378430182969,0.0,False,983.711496991667,,
mp-648984,LaSiAs3,40,La1 Si1 As3,5.91850973,6.05022648,26.60154643,90.0,90.0,90.0,ortho,Pbca,0.0004212,-17.28559780875,-0.7573702562500011,0.04721833999999701,False,5.463407619021749,0.0,False,952.5568011964579,,
mp-1232371,LaSiP3,40,La1 Si1 P3,5.7222349999999995,5.80105,25.793792,90.0,90.0,90.0,ortho,Pbca,9.03e-05,-13.874615055750002,-0.7696603085357141,0.09218214399999701,False,4.032536915911366,0.0,False,856.2241863640294,,
mp-1232374,LaSiP3,40,La1 Si1 P3,5.78309152,5.98363527,25.53921043,90.0,90.0,90.0,ortho,Pna2_1,0.0,-13.96679719975,-0.861842452535711,0.0,True,3.906908122213661,0.5185000000000001,False,883.7565491181256,,
mp-1206882,LaSiPt3,5,La1 Si1 Pt3,4.14265914,4.14265914,5.45411186,90.0,90.0,90.0,tet,P4mm,1e-07,-39.79285996,-1.196520859999998,0.0,True,13.345190967754471,0.0,False,93.60142108707467,,
mp-778450,LaSmO3,20,La1 Sm1 O3,6.030177,6.214502,8.731912,90.0,90.0,90.0,ortho,Pna2_1,6.170000000000001e-05,-8.7009754675,-3.8012802165,0.067660476874999,False,6.845937155644013,4.2879,True,327.22444687835076,,
mp-30756,LaSn3Ru,40,La1 Sn3 Ru1,9.827423010001153,9.827454360000486,9.827455400001458,90.00003253237166,90.00005328788022,90.00001544998113,cubic,Pm-3n,1.265403,-5.779009332750002,-0.5311842907500001,0.0,True,8.343349265896919,0.0,False,949.1214036022197,,
mp-1185122,LaSnO3,5,La1 Sn1 O3,4.213459,4.213459,4.213459,90.0,90.0,90.0,cubic,Pm-3m,0.000961699999999,-7.205669656,-2.447777261000001,0.5259647370625,False,6.784308009954025,0.0,False,74.80253514100687,,
mp-989620,LaTaN3,20,La1 Ta1 N3,5.763247,7.116368,8.332836230853994,54.338772341884486,90.0,90.0,mono,P2_1/c,0.0001013,-22.565097497722224,-1.42052451143889,0.037732602277774,False,8.656365811415053,0.6895,False,277.6707981069446,,
mp-1239192,LaTaO3,5,La1 Ta1 O3,4.073012999999999,4.073012999999999,4.073012999999999,90.0,90.0,90.0,cubic,Pm-3m,0.0008774,-9.458368586,-3.129005053466667,0.336410210213331,False,9.040122158092277,0.0,False,67.56898400289603,,
mp-989406,LaTcN3,10,La1 Tc1 N3,3.552912,5.708911,7.463624074780897,70.29145680395895,90.0,90.0,mono,P2/m,7.64e-05,-17.4171914285,-0.798052574750002,0.040955397499999005,False,6.499746167149664,0.0,False,142.51842879636195,,
mp-989593,LaTcN3,10,La1 Tc1 N3,5.578939911147995,5.578939911147995,5.578940418448112,60.503931084045995,60.503931084045995,60.50392938225813,trig,R-3c,0.0016029,-17.424543335499997,-0.805404481749999,0.033603490500002005,False,7.45949325650651,0.0,False,124.18184177716836,,
mp-989619,LaTcN3,20,La1 Tc1 N3,7.387449345804412,7.387449345804412,6.192098753649709,77.48969470765438,77.48969470765438,87.60435924898873,mono,C2/c,6.599999999999999e-06,-17.458146826,-0.839007972250001,0.0,True,5.752391127485707,0.0,False,322.06906338172934,,
mp-20085,LaTiGe3,10,La1 Ti1 Ge3,6.29781764,6.297816133903542,5.93978851,90.0,90.0,120.00000255325676,hex_,P6_3/mmc,1.43e-05,-17.639427211,-0.7797332193333341,0.0,True,6.587529243682614,0.0,False,204.02418920213466,,
mp-22013,LaTiO3,20,La1 Ti1 O3,5.56856,5.673297,7.938288,90.0,90.0,90.0,ortho,Pnma,0.039236099999999004,-9.174762257000001,-3.639685829666668,0.025448954749995003,False,6.217956135807595,0.0,False,250.78714658782192,,
mp-8020,LaTiO3,5,La1 Ti1 O3,3.958938,3.958938,3.958938,90.0,90.0,90.0,cubic,Pm-3m,0.002878,-9.13262696,-3.5975505326666672,0.06758425174999601,False,6.282852087570259,0.0,False,62.049187819988944,"{'voigt': 183.62, 'reuss': 183.62, 'vrh': 183.62}","{'voigt': 71.12, 'reuss': 60.987, 'vrh': 66.054}"
mp-1211414,LaTiS3,20,La1 Ti1 S3,3.779885,8.058379,13.248556,90.0,90.0,90.0,ortho,Pnma,2.6311429,-7.125148312,-2.075832747166667,0.023615841499999003,False,4.657477640876627,0.0,False,403.54764938690994,,
mp-29257,LaTlO3,10,La1 Tl1 O3,3.7519119092719917,3.7519119092719917,13.027912,90.0,90.0,119.99999840014456,hex_,P6_3mc,2.9300000000000004e-05,-6.761665069,-2.331392621666668,0.156790491749998,False,8.182080686051082,0.349699999999999,False,158.82202214022158,,
mp-13374,LaTmO3,20,La1 Tm1 O3,5.85709,6.051442,8.468151,90.0,90.0,90.0,ortho,Pnma,7.31e-05,-8.8140954055,-3.9616170855000012,0.021383825999999002,False,7.874661617948814,4.414,False,300.1437927284731,,
mp-1199053,LaTmS3,40,La1 Tm1 S3,3.9932477,11.057447852002815,21.5575448529017,78.68861919880553,90.0,90.0,mono,P2_1/m,0.0,-20.25269934475,-2.458534196437497,0.0,True,5.750374710812791,0.7541000000000001,True,933.3866457636792,,
mp-556841,LaTmS3,60,La1 Tm1 S3,3.98277579,16.39311766,21.37012333,90.0,90.0,90.0,ortho,Pnma,1e-07,-20.22737898983333,-2.43321384152083,0.025320354916669,False,5.770248868123916,1.133499999999999,True,1395.2577486371704,,
mp-1078802,LaVGe3,10,La1 V1 Ge3,6.260616776430968,6.260616776430968,5.67791287,90.0,90.0,120.00000249849936,hex_,P6_3/mmc,0.0003544,-6.150116698000001,-0.5723173500000011,0.0,True,7.026475743260107,0.0,False,192.73189248638803,,
mp-989403,LaVN3,10,La1 V1 N3,3.6295830000000002,6.024941450222483,6.328775638256265,106.96251734190928,96.41196281067027,90.8380304035569,tri,P1,0.0002938,-15.53421421283333,-1.29009262308333,0.034311582,False,5.860940486792446,0.5744,False,131.38653390551372,,
mp-19053,LaVO3,5,La1 V1 O3,3.950068,3.950068,3.950068,90.0,90.0,90.0,cubic,Pm-3m,2.0001279,-8.874802302,-3.102043064000001,0.17725938700000102,False,6.408106455024793,0.0,False,61.633057964794716,,
mp-19350,LaVO3,20,La1 V1 O3,5.624057839964091,7.7067086830477,5.571443663481237,90.01129200581076,90.0025072168235,89.83997777812044,ortho,Pnma,0.0002747,-9.052061689000002,-3.279302451000002,0.0,True,6.5421223689567825,0.0,False,241.48199884564238,,
mp-1211380,LaVS3,20,La1 V1 S3,3.837115,7.8064540000000004,13.233138,90.0,90.0,90.0,ortho,Pnma,8.005169,-7.140139033500001,-1.8531406579999992,0.050652810416665,False,4.793109904752426,0.0,False,396.38887929631903,,
mp-1211432,LaVSb3,20,La1 V1 Sb3,6.151936,6.315591,13.425593,90.0,90.0,90.0,ortho,Pbcm,3.9642095,-24.869635124833334,-0.678974499833333,0.004676137500002,False,7.068742035431836,0.0,False,521.6260635840118,,
mp-989455,LaWN3,10,La1 W1 N3,5.644393672126794,5.644393672126794,5.644393419660699,60.621058043811665,60.621058043811665,60.6210572284272,trig,R-3c,5.1900000000000015e-05,-22.909955833000005,-1.210190513250006,0.034093131000005,False,9.39523242077489,0.0,False,128.93932837601054,,
mp-989497,LaWN3,5,La1 W1 N3,3.92323858,3.92323858,4.35371765,90.0,90.0,90.0,tet,P4mm,2e-07,-22.924355698,-1.224590378249999,0.019693266000011003,False,9.038851206267157,0.0,False,67.0115554856844,,
mp-989524,LaWN3,10,La1 W1 N3,5.685491361379906,5.685491361379906,5.685491076690737,60.01458803736727,60.01458803736727,60.01458529802673,trig,R3c,0.0,-22.944048964,-1.244283644250001,0.0,True,9.318807569682567,1.2096,False,129.99677793673973,,
mp-989601,LaWN3,5,La1 W1 N3,4.04746576464397,4.04746576464397,4.047466475178393,89.57171754154623,89.57171754154623,89.5717206365576,trig,R3m,5.3300000000000015e-05,-22.92071981600001,-1.220954496250007,0.023329148000001,False,9.135861941169184,0.706399999999999,False,66.29998165866549,,
mp-989626,LaWN3,10,La1 W1 N3,5.78445674689295,5.78445674689295,3.95800923,90.0,90.0,94.67472040388913,ortho,Amm2,6e-07,-22.928597599,-1.228832279249999,0.015451365000011002,False,9.177789389197171,0.0,False,131.99419891865733,,
mp-989630,LaWN3,20,La1 W1 N3,5.654693,5.692628,8.00222,90.0,90.0,90.0,ortho,Pnma,3.69e-05,-22.91343964050001,-1.2136743207500071,0.030609323500002002,False,9.40568877905338,0.0,False,257.59197156705306,,
mp-989633,LaWN3,20,La1 W1 N3,7.433985811714027,7.433846762170774,6.348757923800948,76.73959110040254,76.73688854402391,85.9646767386297,mono,C2/c,0.0,-22.9067583545,-1.206993034749999,0.037290609500011,False,7.290425319640328,2.386199999999999,False,332.3303936761261,,
mp-989646,LaWN3,10,La1 W1 N3,3.88455453,5.85147009184277,7.9580952715127635,70.58530128429652,90.0,90.0,mono,P2_1/m,0.0,-22.894685037,-1.194919717249999,0.049363927000012006,False,7.100723675984881,1.711799999999999,True,170.60443604759888,,
mp-989699,LaWN3,5,La1 W1 N3,4.656111761959435,4.656111761959435,3.292367999999999,90.0,90.0,119.99999661764195,mono,Cm,0.0005251,-20.497920900000008,1.2018444197499911,2.446128064000003,False,9.798895480588964,0.0,False,61.81385242198857,,
mp-1222904,LaYC3,20,La1 Y1 C3,7.40105483279262,7.40105483279262,7.40105483279262,109.47122063449069,109.47122063449069,109.47122063449069,cubic,I2_13,0.0111294,-7.9992604465,-0.17304143000000002,0.05385678049999,False,5.615602799447447,0.0,False,312.07499677039925,,
mp-10429,LaYO3,20,La1 Y1 O3,5.915933,6.123557,8.610897,90.0,90.0,90.0,ortho,Pnma,0.0001314,-9.1327788055,-3.8749824815,0.039917939624999,False,5.872769225450698,4.3416000000000015,False,311.9431159769749,,
mp-1200447,LaYS3,40,La1 Y1 S3,4.02574354,11.133959243959762,21.760264551791494,78.7104002391859,90.0,90.0,mono,P2_1/m,0.0,-17.29553384275,-2.4628581604375,0.0,True,4.500062413751802,0.7897999999999991,True,956.4758933851981,,
mp-1184965,LaZnO3,5,La1 Zn1 O3,3.9281,3.9281,3.9281,90.0,90.0,90.0,cubic,Pm-3m,0.00039529999999900005,-6.730767929999999,-2.522841183999999,0.131482920749999,False,6.912586053211705,0.0,False,60.61046362504101,,
mp-1185065,LaZrO3,5,La1 Zr1 O3,4.193758,4.193758,4.193758,90.0,90.0,90.0,cubic,Pm-3m,0.0019398,-9.093685098,-3.428166948,0.28710248682499,False,6.261569380374259,0.0,False,73.75816404510208,,
mp-28593,Li3BrO,5,Li3 Br1 O1,3.9486429999999992,3.9486429999999992,3.9486429999999992,90.0,90.0,90.0,cubic,Pm-3m,0.0,-4.39658781,-1.9342525819999992,0.03706398,False,3.148288892773074,4.277500000000001,False,61.56637904117181,"{'voigt': 48.727, 'reuss': 48.727, 'vrh': 48.727}","{'voigt': 36.711, 'reuss': 34.532, 'vrh': 35.622}"
mp-985585,Li3ClO,5,Li3 Cl1 O1,3.908337,3.908337,3.908337,90.0,90.0,90.0,cubic,Pm-3m,0.000110099999999,-4.568813878,-2.064160625,0.029024843,False,2.010312573896275,4.9291,False,59.70023110462523,"{'voigt': 51.628, 'reuss': 51.628, 'vrh': 51.628}","{'voigt': 38.663, 'reuss': 37.81, 'vrh': 38.236}"
mp-1185297,LiAcO3,5,Li1 Ac1 O3,3.919444,3.919444,3.919444,90.0,90.0,90.0,cubic,Pm-3m,2.0002079,-6.5822028920000015,-2.407406714166667,0.12925668721428302,False,7.775550911967442,0.0,False,60.21066048006748,,
mp-1398557,LiAgF3,10,Li1 Ag1 F3,5.425231,5.46548553423216,5.704324863029191,116.48533401211036,85.85288742108132,118.00161431726096,tri,P-1,1.9852214,-7.7640841545000026,-1.141374717333334,0.9226007409999991,False,4.334304367680626,0.20670000000000002,False,131.6418551877617,,