mp_id,formula,sites,composition,a_edge (angstrom),b_edge (angstrom),c_edge (angstrom),alpha_ang (deg),beta_ang (deg),gamma_ang (deg),crystal_system,space_group,total_magnetisation (bohr),energy_per_atom (eV/atom),formation_energy (eV/atom),energy_above_hull (eV/atom),stable,density (g/cc),band_gap (eV),direct_bandgap,volume (cubic-angstrom),bulk_modulus (GPa),shear_modulus (GPa)
mp-35730,BaUO3,20,Ba1 U1 O3,6.239579931181474,6.264552010855393,8.803588920061864,89.99981005347972,89.99955897111505,89.99814565790997,ortho,Pnma,0.0307809,-9.097313797999998,-3.486460204999997,0.0,True,8.171612091758092,0.0,False,344.11620657799807,,
mp-3601,BaUS3,20,Ba1 U1 S3,7.2908132,7.52588778,10.41371308,90.0,90.0,90.0,ortho,Pnma,7.9999999,-7.146524549499986,-2.021431818999984,0.0,True,5.4814866273958405,0.0,False,571.3987910011806,,
mp-1017465,BaVO3,5,Ba1 V1 O3,3.982485,3.982485,3.982485,90.0,90.0,90.0,cubic,Pm-3m,0.9983727,-7.959825548,-2.790472743000001,0.114915918999984,False,6.211395266623796,0.0,False,63.16295592953194,,
mp-19150,BaVO3,25,Ba1 V1 O3,5.77793,5.777929860320303,11.740997,90.0,90.0,120.0000007996925,trig,P-3m1,4.9995614,-7.9996028080000015,-2.830250003000001,0.07513865899998401,False,5.778850647108947,0.0,False,339.45338739887467,,
mp-3451,BaVS3,20,Ba1 V1 S3,6.809994141761529,9.003470373477388,8.97367350553113,80.16413058112539,67.87009544262826,67.60089509440772,ortho,Cmc2_1,4.0000022,-6.352549342,-1.668957399499999,0.0,True,4.011724019419855,0.0,False,470.98230335403633,"{'voigt': 45.608, 'reuss': 83.401, 'vrh': 64.505}","{'voigt': 19.033, 'reuss': -1.376, 'vrh': 8.829}"
mp-4227,BaVS3,10,Ba1 V1 S3,6.728639531550695,6.728250044673716,5.779390955051575,90.05318512500759,90.31876556757946,119.9933858875807,hex_,P6_3/mmc,1.994070499999999,-6.338342442000001,-1.6547504995,0.014206899999999,False,4.169128823642622,0.0,False,226.60022021533962,"{'voigt': -13335418.188, 'reuss': 2684297.867, 'vrh': -5325560.16}","{'voigt': -841617.907, 'reuss': 202.714, 'vrh': -420707.596}"
mp-542818,BaVS3,20,Ba1 V1 S3,8.796108361739185,8.796108361739185,11.276833702821728,50.2507821153673,50.2507821153673,45.74183352475481,mono,Cm,0.0097659,-6.338272922,-1.654680979499999,0.014276420000000001,False,4.199591438038246,0.0,False,449.91305629713696,,
mp-555857,BaVS3,10,Ba1 V1 S3,6.796680575155796,6.796672618851596,5.68786110186257,90.00268095122391,89.9973104661002,120.79161100919758,ortho,C222_1,1.9362271,-6.348760176999998,-1.6651682344999972,0.0037891650000020003,False,4.185551231275974,0.0,False,225.71113273783448,,
mp-27363,BaVSe3,10,Ba1 V1 Se3,6.022023,7.0266321601760255,7.026632,60.0000007540711,90.0,90.0,hex_,P6_3/mmc,2.0008791,-5.777679637,-1.47955654840625,0.037731502999997,False,5.483429587958488,0.0,False,257.4942130766846,,
mp-676597,BaVSe3,10,Ba1 V1 Se3,7.03568979216594,7.03568979216594,5.902194,90.0,90.0,119.36626530534718,ortho,Cmc2_1,1.768806,-5.792741587,-1.4946184984062492,0.022669552999997,False,5.545288729051739,0.0,False,254.6217980166793,,
mp-989622,BaWN3,20,Ba1 W1 N3,5.75731796,7.64487733756471,10.277887652445761,48.75827415404715,90.0,90.0,mono,P2_1/c,0.0,-8.8003423065,-0.8219546254999991,0.0,True,7.0919324591152,1.505,False,340.15347524074014,,
mp-989636,BaWN3,10,Ba1 W1 N3,7.229839743420043,7.229839743420043,6.573942723484059,75.42182511116106,75.42182511116106,31.5782153109692,mono,C2/m,0.0005434,-8.790327832,-0.811940151,0.0100144745,False,6.944880878085909,1.093799999999999,False,173.67795895194058,,
mp-1183395,BaWO3,5,Ba1 W1 O3,4.164356,4.164356,4.164356,90.0,90.0,90.0,cubic,Pm-3m,2.0006923,-8.40795793,-2.463760293,0.158416016499995,False,8.488409149649463,0.0,False,72.21768246815921,,
mp-1227349,BaZnIn3,5,Ba1 Zn1 In3,6.928847465953186,6.928847465953186,6.928847465953186,139.74470723684436,139.74470723684436,58.24113005414635,tet,I4mm,0.0,-2.636065041999998,-0.34481708599999705,0.0,True,6.6013262761656755,0.0,False,137.64360885076934,,
mp-1183405,BaZnO3,5,Ba1 Zn1 O3,4.11496,4.11496,4.11496,90.0,90.0,90.0,cubic,Pm-3m,1.6937669,-5.448701428,-1.844181115,0.17429412800000002,False,5.975383989729056,0.0,False,69.67818890775195,,
mp-1019544,BaZrO3,10,Ba1 Zr1 O3,5.95393041,5.9566735096429495,5.95393041,119.98477327356406,90.0,119.98477327356406,tet,I4/mcm,0.0,-8.701352408,-3.639240691,0.0,True,6.148305055783227,3.1163,False,149.38125101812372,"{'voigt': 147.122, 'reuss': 147.005, 'vrh': 147.064}","{'voigt': 90.888, 'reuss': 89.956, 'vrh': 90.422}"
mp-3834,BaZrO3,5,Ba1 Zr1 O3,4.21238715,4.21238715,4.21238715,90.0,90.0,90.0,cubic,Pm-3m,0.0,-8.701280686,-3.639168969000001,7.172199999949669e-05,False,6.143794292287296,3.0377,False,74.74546324141521,"{'voigt': 148.845, 'reuss': 148.845, 'vrh': 148.845}","{'voigt': 92.203, 'reuss': 90.635, 'vrh': 91.419}"
mp-540771,BaZrS3,20,Ba1 Zr1 S3,7.0635613,7.13448881,10.04182376,90.0,90.0,90.0,ortho,Pnma,0.0,-6.683471456999999,-2.107120602499998,0.0,True,4.262395303692848,0.9900000000000001,True,506.0566946992324,"{'voigt': 70.077, 'reuss': 69.873, 'vrh': 69.975}","{'voigt': 34.67, 'reuss': 32.562, 'vrh': 33.616}"
mp-1079300,BaZrSe3,10,Ba1 Zr1 Se3,7.2626205039982645,7.2626205039982645,6.4491060000000004,90.0,90.0,120.00000459121559,hex_,P6_3/mmc,6.730000000000002e-05,-6.062030293,-1.8711482924062501,0.049314663499999,False,5.247078595581919,0.0,False,294.58920587065876,,
mp-998350,BaZrSe3,5,Ba1 Zr1 Se3,5.287383,5.296393207215643,5.30947747098149,89.89144703452692,89.91420970899256,89.96131523565386,tri,P1,0.0003726,-6.033841046,-1.842959045406249,0.07750391049999901,False,5.197960744971479,0.20239999999999903,False,148.68645536701626,,
mp-998427,BaZrSe3,20,Ba1 Zr1 Se3,4.0649102,9.14687945,15.11012795,90.0,90.0,90.0,ortho,Pnma,0.0,-6.1113449565,-1.920462955906249,0.0,True,5.50265572294674,0.37259999999999904,True,561.8133477504385,,
mp-1183417,BeAgO3,5,Be1 Ag1 O3,3.568391,3.568391,3.568391,90.0,90.0,90.0,cubic,Pm-3m,0.0032476,-5.063098896,-0.777852184333333,0.6506316833333311,False,6.025540851142892,0.0,False,45.43780109045,,
mp-1183414,BeAuO3,5,Be1 Au1 O3,3.570985,3.570985,3.570985,90.0,90.0,90.0,cubic,Pm-3m,0.005366,-4.999525536,-0.6280899599999991,0.8419790584999991,False,9.261457216557636,0.0,False,45.53696457156541,,
mp-1183422,BeBO3,5,Be1 B1 O3,3.264797,3.264797,3.264797,90.0,90.0,90.0,cubic,Pm-3m,0.0009088,-6.053136558,-1.000599027833332,1.6395714481666661,False,3.236288161418513,0.0,False,34.79914295160879,,
mp-1183403,BeBiO3,5,Be1 Bi1 O3,3.673799,3.673799,3.673799,90.0,90.0,90.0,cubic,Pm-3m,1.0049679,-6.126205226,-1.631539188,0.485461608999999,False,8.907780541851858,0.0,False,49.584527008863695,,
mp-1183418,BeCdO3,5,Be1 Cd1 O3,3.6151590000000002,3.6151590000000002,3.6151590000000002,90.0,90.0,90.0,cubic,Pm-3m,1.9998612,-5.172055926,-1.263394712,0.516208147999998,False,5.954360275822377,0.0,False,47.24786719250145,,
mp-1183426,BeCuO3,5,Be1 Cu1 O3,3.461833,3.461833,3.461833,90.0,90.0,90.0,cubic,Pm-3m,0.0003157,-5.358760686,-0.822260176,0.8448208941249991,False,4.825262704072896,0.0,False,41.487602710206495,,
mp-984722,BeGaO3,5,Be1 Ga1 O3,3.462523,3.462523,3.462523,90.0,90.0,90.0,cubic,Pm-3m,0.0583319,-5.614557182,-1.2922788015,1.084756912166665,False,5.069464910461347,0.0,False,41.51241513065125,"{'voigt': 168.059, 'reuss': 168.059, 'vrh': 168.059}","{'voigt': -17.149, 'reuss': 4.238, 'vrh': -6.455}"
mp-1183415,BeGeO3,5,Be1 Ge1 O3,3.5048880000000002,3.5048880000000002,3.5048880000000002,90.0,90.0,90.0,cubic,Pm-3m,0.0018884,-5.829437096,-1.188172349,1.34696337,False,5.000350700463459,0.0,False,43.05488498849875,,
mp-1183413,BeHgO3,5,Be1 Hg1 O3,3.656609,3.656609,3.656609,90.0,90.0,90.0,cubic,Pm-3m,2.0005718,-4.670660882,-0.8920672985000011,0.6030980154999981,False,8.749032475961629,0.0,False,48.891748779920675,,
mp-1183436,BeInO3,5,Be1 In1 O3,3.556543,3.556543,3.556543,90.0,90.0,90.0,cubic,Pm-3m,0.7138448,-5.796295332,-1.5278014073333321,0.7103746075,False,6.342490224546631,0.0,False,44.986705688153236,,
mp-1188955,BeNF3,20,Be1 N1 F3,4.719892,4.815126,12.89482,90.0,90.0,90.0,ortho,Pnma,0.0210167,-4.9186266665,-1.356201164,0.875561598333335,False,1.813512554287816,1.7006000000000001,False,293.0589582435813,,
mp-1214301,BeNF3,20,Be1 N1 F3,4.724282,6.173578,13.985578924164885,69.28711201327276,90.0,90.0,mono,P2_1/c,7.9974287,-5.1360772695,-1.573651767,0.6581109953333341,False,1.392969106136869,0.0,False,381.53473582422913,,
mp-726347,BeNF3,20,Be1 N1 F3,5.748968,4.712836785699458,12.653507682226063,90.19291389084087,90.13346454365194,101.36408855699192,mono,P2_1/c,7.9997782,-5.1295516935,-1.567126191,0.6646365713333351,False,1.581232746701653,2.6969000000000003,False,336.1087107700283,,
mp-1183431,BeOsO3,5,Be1 Os1 O3,3.437481,3.437481,3.437481,90.0,90.0,90.0,cubic,Pm-3m,0.017113,-6.70831386,-0.746181197999999,1.301001644999995,False,10.107589237169604,0.0,False,40.61822295294155,,
mp-1183499,BePbO3,5,Be1 Pb1 O3,3.652530999999999,3.652530999999999,3.652530999999999,90.0,90.0,90.0,cubic,Pm-3m,0.0002042,-5.851263928,-1.392075337999999,0.628855202,False,9.003621812885386,0.0,False,48.72835290398645,,
mp-1183447,BePdO3,5,Be1 Pd1 O3,3.498451,3.498451,3.498451,90.0,90.0,90.0,cubic,Pm-3m,0.0017675,-5.602706964,-0.8500714260000001,0.8275869360000001,False,6.33803315723255,0.0,False,42.81809943999384,,
mp-1183451,BePtO3,5,Be1 Pt1 O3,3.502685,3.502685,3.502685,90.0,90.0,90.0,cubic,Pm-3m,0.0007333999999990001,-5.646703856,-0.7158180159999991,1.081286179,False,9.741122777998369,0.0,False,42.973749466219274,,
mp-1183476,BeReO3,5,Be1 Re1 O3,3.454411,3.454411,3.454411,90.0,90.0,90.0,cubic,Pm-3m,2.2897129,-7.214683852,-1.008401834500001,1.371134622166664,False,9.797644628821834,0.0,False,41.22133224745682,,
mp-1183443,BeSbO3,5,Be1 Sb1 O3,3.577371,3.577371,3.577371,90.0,90.0,90.0,cubic,Pm-3m,0.0833848,-6.06812796,-1.525668535999999,0.8188777727500051,False,6.484145020487226,0.0,False,45.78170326605363,,
mp-1183445,BeSiO3,5,Be1 Si1 O3,3.477388,3.477388,3.477388,90.0,90.0,90.0,cubic,Pm-3m,3.2e-06,-6.761510964,-1.9597881819999992,1.245697571,False,3.360455805228183,0.269099999999999,False,42.049366115138874,,
mp-1183449,BeVO3,5,Be1 V1 O3,3.428947,3.428947,3.428947,90.0,90.0,90.0,cubic,Pm-3m,1.0038615,-7.243470252,-1.710029862,1.044593365000002,False,4.446281942922852,0.0,False,40.316453089377035,,
mp-984552,BeZnO3,5,Be1 Zn1 O3,3.503176,3.503176,3.503176,90.0,90.0,90.0,cubic,Pm-3m,1.999973799999999,-5.16099608,-1.192388182,0.7651137839999981,False,4.728391300139916,0.0,False,42.991823945284224,,
mp-31250,BiBO3,20,Bi1 B1 O3,5.0360157,6.585006131879148,8.307208919963806,109.71207830000323,90.0,90.0,mono,P2_1/c,0.0,-7.373128569000002,-2.290466749833336,0.0,True,6.858520761517384,3.0096,False,259.34169065972594,,
mp-1178485,BiCO3,20,Bi1 C1 O3,5.213685,6.977569184257796,8.634501891444868,99.0881040105864,90.02579951930933,90.6265441430773,tri,P-1,0.0015635,-7.205558499999999,-1.6130419365000002,0.07999996737499601,False,5.760646941280607,1.411099999999999,False,310.1507491782457,,
mp-1183479,BiMoO3,5,Bi1 Mo1 O3,4.116636,4.116636,4.116636,90.0,90.0,90.0,cubic,Pm-3m,2.7578378,-7.32215941,-1.406245923000001,0.35392959500000104,False,8.400327969313365,0.0,False,69.76336218902185,,
mp-753455,BiOF3,20,Bi1 O1 F3,14.828852,4.167796,6.445144496317363,84.08269529392659,90.0,90.0,mono,P2_1/c,3.999546,-5.060385857,-2.1458994135,0.077034030000001,False,4.727083710880998,0.024099999999999,False,396.21089693666096,,
mp-1214261,BiPb3Au,20,Bi1 Pb3 Au1,11.510874,11.510874,4.50053,90.0,90.0,90.0,tet,P4_2/mnm,0.0024061,-55.629828991500005,-0.041301746500005,0.012226241499995,False,11.445387743360788,0.0,False,596.3212162141713,,
mp-1183469,BiPtO3,5,Bi1 Pt1 O3,4.070707,4.070707,4.070707,90.0,90.0,90.0,cubic,Pm-3m,0.0024045,-5.715715783999999,-0.7547056550000001,0.548429729125,False,11.128538791158809,0.0,False,67.45428325640967,,
mp-680530,BiPtPb3,20,Bi1 Pt1 Pb3,11.696226,11.696226,4.177592,90.0,90.0,90.0,tet,P4_2/mnm,5.0600000000000003e-05,-55.934565207874996,-0.16548661287500802,0.002416453999998,False,11.92056513391114,0.0,False,571.5016985480931,,
mp-573119,BiRhO3,20,Bi1 Rh1 O3,5.440072,5.92128,7.812214,90.0,90.0,90.0,ortho,Pnma,0.002872199999999,-6.5665035535000005,-1.3468585145,0.061984177375000005,False,9.498988703250447,0.41030000000000005,False,251.64851803379383,"{'voigt': 175.689, 'reuss': 170.973, 'vrh': 173.331}","{'voigt': 51.547, 'reuss': -210.57, 'vrh': -79.512}"
mp-755382,BiSbO3,10,Bi1 Sb1 O3,5.9789907211693345,5.9789907211693345,5.978990232114618,64.72337448800644,64.72337448800644,64.72337333509167,trig,R-3,9e-07,-6.191114895,-1.618531182,0.086220948999999,False,7.5425780684696875,2.1066,False,166.76267335128563,,
mp-1227486,BiSbS3,20,Bi1 Sb1 S3,3.968885,11.205584,11.867692,90.0,90.0,90.0,ortho,Pnma,0.0006943,-22.010765391750002,-0.348048047437501,0.002304086749997,False,5.372816125138688,1.348399999999999,False,527.799868152903,,
mp-1227508,BiSbSe3,20,Bi1 Sb1 Se3,4.113691,11.635594,12.417885,90.0,90.0,90.0,ortho,Pnma,0.0007027,-25.772911206750003,-0.34425717318750304,0.015028588499998,False,6.343065923102981,1.0106,False,594.3850249237373,,
mp-1227340,BiSbTe3,5,Bi1 Sb1 Te3,10.93960463181661,10.93960463181661,10.93960500028064,23.012565253501897,23.012565253501897,23.012565258966152,trig,R3m,0.0,-3.921487397999999,-0.431696751999999,0.004540644000004,False,6.74731363324774,0.21329999999999902,True,175.60495542387753,,
mp-29526,BrNO3,20,Br1 N1 O3,4.11367551,6.77359703,11.57273897,90.0,90.0,90.0,ortho,P2_12_12_1,0.0,-5.4999319555,-0.5361104965000001,0.0,True,2.923029358854789,2.208,False,322.4671988112441,,
mp-1079290,C3IN,10,C3 I1 N1,8.544118,5.351875,5.963696870296562,86.69217045542919,90.0,90.0,mono,P2_1/m,0.0,-5.772139142999999,1.7375182245,1.80309525875,False,2.15848257094122,1.9388,False,272.24793599220885,,
mp-722025,C3IN,10,C3 I1 N1,8.672597,6.042851,6.838196407098147,65.76728625541631,90.0,90.0,mono,P2_1/m,0.0011907,-5.880080404999999,1.6295769625,1.69515399675,False,1.798208355389058,1.951,False,326.7932901394854,,
mp-1080825,C3NCl,10,C3 N1 Cl1,8.068764,4.893445,6.329732296292238,71.14966369921632,90.0,90.0,mono,P2_1/m,0.0018751999999990002,-6.174505964,1.4000562124999991,1.5759969136666672,False,1.200431717812232,2.0218,True,236.51903172415038,,
mp-722045,C3NCl,10,C3 N1 Cl1,6.986712,4.797261,6.890542434839583,76.89410450637192,90.0,90.0,mono,P2_1/m,0.001220199999999,-6.355672524000001,1.218889652499999,1.394830353666666,False,1.262252136013867,1.325,True,224.93520862205028,,
mp-28765,CBr3F,20,C1 Br3 F1,6.60436,9.502543,10.229411,90.0,90.0,90.0,ortho,Pnma,0.0001583,-3.8943620875000002,-0.6841652745000001,0.023877444406249,False,2.800979884257033,3.3196,False,641.9795737103517,,
mp-23071,CCl3F,40,C1 Cl3 F1,5.96979399,9.72306833,15.91834851,90.0,90.0,90.0,ortho,Pbca,0.0,-4.35266182725,-1.01551093925,0.011921779687500002,False,1.974987243922493,4.9147,True,923.9760006360515,,
mp-28473,CClF3,10,C1 Cl1 F3,5.972616176003972,5.972616176003972,4.67918979,90.0,90.0,106.20171543378854,ortho,Cmc2_1,0.0,-5.148228850000001,-1.785901039,0.011826156312499001,False,2.164334652507502,6.616,False,160.28768937768186,,
mp-556845,CIF3,20,C1 I1 F3,4.949012079117305,4.949012079117305,19.876594,90.0,90.0,105.99877706215216,ortho,Cmce,0.0326025,-4.8468588175,-1.549435815499999,0.08772000962500101,False,2.780630265280026,3.725,False,467.9756858583632,,
mp-1188937,CN3Cl,20,C1 N3 Cl1,10.666603,4.021108,9.828688494699689,80.18028302846913,90.0,90.0,mono,P2_1/c,8.0007468,-6.484104575000001,0.7343025024999981,0.9102432036666641,False,1.430855804212573,0.3063,False,415.39153083170027,,
mp-29700,CS3N,40,C1 S3 N1,11.118356026082454,11.118356026082454,17.810845684146162,65.95204364931006,65.95204364931006,31.22659952220678,mono,C2/c,0.0010586,-6.06095669925,-0.06455231124999901,0.19574167485714303,False,1.569779562046759,2.8283,False,1034.2265603628787,,
mp-1214236,CSN3,10,C1 S1 N3,5.148143,7.219668752898917,7.33189612426124,82.7470254395413,75.43081621921371,80.62548549945458,tri,P-1,1.9977887,-7.475025042,0.201346617,0.28811127903571204,False,1.103186970580454,0.0,False,259.1862362097286,,
mp-1013543,Ca3AsN,5,Ca3 As1 N1,5.41143,5.41143,5.41143,90.0,90.0,90.0,cubic,Pm-3m,0.002728,-8.950435538999999,0.039797012750001005,1.332137823,False,2.191777030898736,0.0,False,158.46601434065124,,
mp-4192,Ca3AsN,20,Ca3 As1 N1,6.72350532,6.71622716,9.52706106,90.0,90.0,90.0,ortho,Pnma,0.0,-10.282573361999999,-1.292340810249999,0.0,True,3.229329942502832,0.894,True,430.20958105101334,"{'voigt': 59.959, 'reuss': 59.841, 'vrh': 59.9}","{'voigt': 45.552, 'reuss': 45.353, 'vrh': 45.452}"
mp-7223,Ca3AsN,5,Ca3 As1 N1,4.75089971,4.75089971,4.75089971,90.0,90.0,90.0,cubic,Pm-3m,0.0,-10.274529862,-1.284297310249999,0.008043499999999001,False,3.238955029320625,0.7169999999999991,True,107.23278565641597,"{'voigt': 60.583, 'reuss': 60.583, 'vrh': 60.583}","{'voigt': 51.934, 'reuss': 51.488, 'vrh': 51.711}"
mp-1013642,Ca3AsP,5,Ca3 As1 P1,5.333899,5.333899,5.333899,90.0,90.0,90.0,cubic,Pm-3m,0.0008845999999990001,-9.990848818666667,-1.025951138761904,0.17120628266666602,False,2.474410166295665,0.192699999999999,True,151.75197904576734,"{'voigt': 38.905, 'reuss': 38.905, 'vrh': 38.905}","{'voigt': 30.368, 'reuss': 23.203, 'vrh': 26.786}"
mp-1096856,Ca3AsP,5,Ca3 As1 P1,5.424854,5.424854,5.424854,90.0,90.0,90.0,cubic,Pm-3m,0.0004411,-9.768282940666667,-0.8033852607619051,0.39377216066666604,False,2.352024772359991,0.10890000000000001,True,159.64825035816477,,
mp-9040,Ca3AuN,5,Ca3 Au1 N1,4.844971,4.844971,4.844971,90.0,90.0,90.0,cubic,Pm-3m,8.099999999999999e-06,-17.026029991999998,-0.860311607749997,0.020319659999998,False,4.835878841491963,0.0,False,113.72960889704892,,
mp-1013545,Ca3BiAs,5,Ca3 Bi1 As1,5.53,5.53,5.53,90.0,90.0,90.0,cubic,Pm-3m,0.003085499999999,-19.954938436916667,-1.090001270416667,0.0878332485,False,3.968270259837087,0.0,False,169.11237700000004,,
mp-1013703,Ca3BiAs,5,Ca3 Bi1 As1,5.84,5.84,5.84,90.0,90.0,90.0,cubic,Pm-3m,0.000121699999999,-19.333994926916667,-0.469057760416669,0.7087767585000001,False,3.3692876864729002,0.0,False,199.17670399999997,"{'voigt': 26.621, 'reuss': 26.621, 'vrh': 26.621}","{'voigt': 17.908, 'reuss': 7.186, 'vrh': 12.547}"
mp-1013542,Ca3BiN,5,Ca3 Bi1 N1,5.85,5.85,5.85,90.0,90.0,90.0,cubic,Pm-3m,0.037882099999999,-17.200868178,0.5483129252499961,1.752558042,False,2.8467903046812193,0.0,False,200.20162499999998,,
mp-31149,Ca3BiN,5,Ca3 Bi1 N1,4.90035347,4.90035347,4.90035347,90.0,90.0,90.0,cubic,Pm-3m,0.0,-18.95342622,-1.204245116750002,0.0,True,4.843294237211277,0.3687,True,117.67446228077745,,
mp-1013558,Ca3BiP,5,Ca3 Bi1 P1,5.417466239999999,5.417466239999999,5.417466239999999,90.0,90.0,90.0,cubic,Pm-3m,0.0,-18.845626722,-1.121780490595242,0.0,True,3.7617496719037433,0.07590000000000001,True,158.9968941301616,"{'voigt': 37.265, 'reuss': 37.265, 'vrh': 37.265}","{'voigt': 29.139, 'reuss': 24.962, 'vrh': 27.051}"
mp-1013702,Ca3BiP,5,Ca3 Bi1 P1,5.82,5.82,5.82,90.0,90.0,90.0,cubic,Pm-3m,0.0030177,-18.006400403999997,-0.28255417259524,0.839226318000001,False,3.033958099348518,0.0,False,197.13736800000004,"{'voigt': 26.696, 'reuss': 26.696, 'vrh': 26.696}","{'voigt': 17.94, 'reuss': 6.4030000000000005, 'vrh': 12.171}"
mp-1013704,Ca3BiSb,5,Ca3 Bi1 Sb1,5.86,5.86,5.86,90.0,90.0,90.0,cubic,Pm-3m,0.00014199999999900002,-3.29573292,-0.48856588200000006,0.47741040082620306,False,3.721415300090632,0.0,False,201.23005600000005,"{'voigt': 26.893, 'reuss': 26.893, 'vrh': 26.893}","{'voigt': 18.377, 'reuss': 9.207, 'vrh': 13.792}"
mp-1013733,Ca3BiSb,5,Ca3 Bi1 Sb1,5.8100000000000005,5.8100000000000005,5.8100000000000005,90.0,90.0,90.0,cubic,Pm-3m,0.0044518,-3.452892967999999,-0.645725929999999,0.320250352826204,False,3.8183223513688542,0.0,False,196.12294099999997,"{'voigt': 28.372, 'reuss': 28.372, 'vrh': 28.372}","{'voigt': 19.697, 'reuss': 11.782, 'vrh': 15.74}"
mp-11822,Ca3GeN,5,Ca3 Ge1 N1,4.80418381,4.80418176,4.80418381,90.0,90.0,90.0,cubic,Pm-3m,0.4475857,-9.684532317999999,-0.8614104477499991,0.0,True,3.09820687850241,0.0,False,110.88138976749332,,