mp_id,formula,sites,composition,a_edge (angstrom),b_edge (angstrom),c_edge (angstrom),alpha_ang (deg),beta_ang (deg),gamma_ang (deg),crystal_system,space_group,total_magnetisation (bohr),energy_per_atom (eV/atom),formation_energy (eV/atom),energy_above_hull (eV/atom),stable,density (g/cc),band_gap (eV),direct_bandgap,volume (cubic-angstrom),bulk_modulus (GPa),shear_modulus (GPa)
mp-5338,ZnSeO3,40,Zn1 Se1 O3,6.21569912,7.21441768,12.01209078,90.0,90.0,90.0,ortho,Pbca,0.0,-5.422337313750001,-1.5024296932187502,0.0,True,4.74416993043778,3.9227,False,538.6539781098929,,
mp-1016876,ZnSiO3,5,Zn1 Si1 O3,3.542246,3.542246,3.542246,90.0,90.0,90.0,cubic,Pm-3m,1.0300000000000001e-05,-6.420110908000001,-2.114321977000001,0.58051383316667,False,5.286241207400336,0.0,False,44.4463555048899,"{'voigt': 235.713, 'reuss': 235.713, 'vrh': 235.713}","{'voigt': 118.072, 'reuss': 96.781, 'vrh': 107.427}"
mp-1020623,ZnSiO3,10,Zn1 Si1 O3,5.43233385398081,5.43233385398081,5.432334293430127,52.52246245095775,52.52246245095775,52.52246669794167,trig,R-3,0.0006621,-6.850865412,-2.545076481,0.149759329166671,False,5.027982519556377,3.5938,False,93.45862085830957,,
mp-1178612,ZnSiO3,20,Zn1 Si1 O3,7.552398639828409,7.552398639828409,7.552398639828409,137.09853607075274,102.27344978281972,93.14694167249095,ortho,Ibam,0.0,-6.9622586685000005,-2.6564697375,0.038366072666670005,False,3.4577114196668,3.571799999999999,False,271.8030829899101,,
mp-562182,ZnSiO3,20,Zn1 Si1 O3,6.886753996601446,6.886753996601446,5.372906616207842,73.72493079954232,73.72493079954232,86.56440030830905,mono,C2/c,0.004091,-6.95038914,-2.644600209,0.05023560116667,False,4.003285823759669,3.4371,False,234.7613099162203,,
mp-619034,ZnSiO3,80,Zn1 Si1 O3,5.336361,9.300853,18.492968,90.0,90.0,90.0,ortho,Pbca,7.38e-05,-6.945300627875,-2.639511696874999,0.055324113291671,False,4.09570354478328,3.4593,True,917.856103283554,,
mp-641917,ZnSiO3,40,Zn1 Si1 O3,9.312416,5.299315,9.428662392808908,79.48871616695789,90.0,90.0,mono,P2_1/c,0.0018433999999990002,-6.941780636,-2.635991705,0.058844105166671004,False,4.108569777960076,3.3367,False,457.4908908673707,,
mp-1016902,ZnSnO3,5,Zn1 Sn1 O3,4.028889,4.028889,4.028889,90.0,90.0,90.0,cubic,Pm-3m,0.0172689,-5.29058385,-1.267944153999999,0.712904693999999,False,5.893869473325446,0.0,False,65.39671100186958,"{'voigt': 151.079, 'reuss': 151.079, 'vrh': 151.079}","{'voigt': 58.077, 'reuss': 49.565, 'vrh': 53.821}"
mp-13334,ZnSnO3,10,Zn1 Sn1 O3,5.659121978145461,5.659121978145461,5.659121759519228,56.42809503600086,56.42809503600086,56.428092099671765,trig,R3c,0.0003536,-5.9620648890000005,-1.939425192999999,0.041423655000000004,False,6.556764826849906,1.080999999999999,True,117.57007878380284,,
mp-1337169,ZnSnO3,20,Zn1 Sn1 O3,5.380528,5.407724,7.940176,90.0,90.0,90.0,ortho,Pnma,0.000136599999999,-5.9206463105000005,-1.898006614499999,0.0828422335,False,6.67339557696861,1.1054,False,231.03061953050977,,
mp-14628,ZnSnO3,10,Zn1 Sn1 O3,5.687614017347257,5.687614017347257,5.687614036250437,56.44175824505765,56.44175824505765,56.44176320645119,trig,R-3,0.0001226,-5.948557964,-1.925918267999999,0.05493057999999901,False,6.456458301074723,1.3215,False,119.39662912889759,"{'voigt': -343510537.193, 'reuss': 1751.411, 'vrh': -171754392.891}","{'voigt': -2680571215.289, 'reuss': 8668.923, 'vrh': -1340281273.183}"
mp-1093994,ZnSnS3,10,Zn1 Sn1 S3,6.860098149457119,6.860098149457119,6.860098688725258,55.93674715491402,55.93674715491402,55.936745734669834,trig,R3c,0.0001493,-12.052207587142858,-0.499850860830359,0.16903320314285702,False,4.501907707628915,0.358799999999999,False,206.78893400063478,,
mp-16819,ZnTeO3,40,Zn1 Te1 O3,6.32906732,7.33928353,12.32774028,90.0,90.0,90.0,ortho,Pbca,0.0,-5.482059908750001,-1.6326734050833331,0.0007195042499960001,False,5.591035434894425,3.605899999999999,False,572.6336391061509,,
mp-1340971,ZnWO3,20,Zn1 W1 O3,5.330486,5.384023,7.940744,90.0,90.0,90.0,ortho,Pnma,7.9998902,-7.661755929500001,-1.8494045585,0.088955001499999,False,8.663471528886411,1.8923,False,227.89505864557682,,
mp-1427680,ZnWO3,5,Zn1 W1 O3,3.9973023393083493,3.9973023393083493,4.072086,90.0,90.0,91.01825562508262,ortho,Amm2,0.968131,-7.269389574,-1.457038202999999,0.48132135700000006,False,7.587252204425241,0.0,False,65.05524987683661,,
mp-27898,Zr3AlN,10,Zr3 Al1 N1,3.36863777,6.016481369467754,8.99376521,90.0,90.0,106.25727454555262,ortho,Cmcm,9e-07,-17.939549957,-1.117505013749999,0.0,True,5.971793952368969,0.0,False,174.99117453431325,,
mp-18927,Zr3NiO,10,Zr3 Ni1 O1,3.346903,5.718720158553835,8.838629,90.0,90.0,107.0152866356749,ortho,Cmcm,0.0009800000000000002,-8.251915777,-0.9776758620000011,0.40440821450000003,False,7.151968775055569,0.0,False,161.7661871919459,,
mp-1014226,Zr3ZnN,10,Zr3 Zn1 N1,5.982268590351204,5.982268590351204,8.88907579,90.0,90.0,147.43669426369905,ortho,Cmcm,3.7800000000000004e-05,-18.287888509000002,-1.030142710750001,0.0,True,6.848641574863439,0.0,False,171.2210847587339,,
mp-1215405,ZrAlCr3,10,Zr1 Al1 Cr3,6.377127773051517,5.346767,4.917697,90.0,90.0,65.21499874052121,ortho,Cmcm,1.0543568,-14.827255307566665,0.113128173433335,0.332147949833332,False,5.981728857252448,0.0,False,152.233440091248,,
mp-1237224,ZrAlCr3,10,Zr1 Al1 Cr3,5.899699935301794,5.899699935301794,5.279331,90.0,90.0,119.99999927447178,hex_,P6_3/mmc,0.0722268,-14.443601200566667,0.49678228043333306,0.7158020568333311,False,5.722257680601028,0.0,False,159.1363431115155,,
mp-972066,ZrAlO3,5,Zr1 Al1 O3,3.672301,3.672301,3.672301,90.0,90.0,90.0,cubic,Pm-3m,0.0466204,-8.373685417999999,-2.946253523,0.5159898236,False,5.572820739004825,0.0,False,49.523897122439884,"{'voigt': 217.28, 'reuss': 217.28, 'vrh': 217.28}","{'voigt': 98.399, 'reuss': 97.969, 'vrh': 98.184}"
mp-1188026,ZrBO3,5,Zr1 B1 O3,3.448181,3.448181,3.448181,90.0,90.0,90.0,cubic,Pm-3m,0.0057902,-8.09859658,-2.084401496833334,1.162429119299998,False,6.076679151888352,0.0,False,40.99870729715771,,
mp-1068661,ZrBRh3,5,Zr1 B1 Rh3,4.11326891,4.11326891,4.11325671,90.0,90.0,90.0,cubic,Pm-3m,1.36e-05,-21.301595594,-0.8006291954999991,0.0,True,9.800951379587259,0.0,False,69.59211264277012,,
mp-1207063,ZrBRh3,5,Zr1 B1 Rh3,4.75843,4.75843,4.75843,90.0,90.0,90.0,cubic,Pm-3m,0.0001131,-18.737034114,1.763932284500001,2.5645614799999983,False,6.330488159726366,0.0,False,107.7434938989021,,
mp-1188011,ZrBeO3,5,Zr1 Be1 O3,3.469162,3.469162,3.469162,90.0,90.0,90.0,cubic,Pm-3m,2e-06,-8.293399844,-2.867200542,0.662112432,False,5.895549670305644,0.6259,False,41.75165948717156,,
mp-1239170,ZrBeO3,5,Zr1 Be1 O3,4.116191,4.116191,4.116191,90.0,90.0,90.0,cubic,Pm-3m,0.0018769,-7.325005726,-1.898806424,1.630506549999998,False,3.5294862012939383,0.0,False,69.74074080076234,,
mp-1016845,ZrCdO3,5,Zr1 Cd1 O3,4.159472,4.159472,4.159472,90.0,90.0,90.0,cubic,Pm-3m,0.0017287,-7.352074369999999,-2.481755602999999,0.34487558900000104,False,5.806339458576674,0.0,False,71.96388740867712,"{'voigt': 155.518, 'reuss': 155.518, 'vrh': 155.518}","{'voigt': 64.816, 'reuss': 51.485, 'vrh': 58.151}"
mp-1188065,ZrCoH3,10,Zr1 Co1 H3,5.5126632830966935,5.5126632830966935,4.36913105,90.0,90.0,143.17962871184315,ortho,Cmcm,2.7128215,-5.6670875469999995,-0.493764213749999,0.0,True,6.39316289794101,0.0,False,79.57346425534098,,
mp-756665,ZrCoO3,20,Zr1 Co1 O3,5.033712154719319,5.4141420025370595,8.396207675388812,89.99761956962227,89.95374453761909,90.00071824223346,ortho,Pnma,1.3e-06,-8.8233933775,-2.7183933045,0.07850980700000301,False,5.75193460615361,1.9991,False,228.8237243191404,,
mp-761293,ZrCoO3,20,Zr1 Co1 O3,5.419936885718412,5.703626772843223,7.815718760741905,93.83185019742695,89.65627049987572,89.69350544024351,trig,R-3,0.0,-8.8048382725,-2.6998381995000003,0.09706491200000401,False,5.459938235577095,0.0,False,241.06116989455316,,
mp-755055,ZrCrO3,20,Zr1 Cr1 O3,4.953036000029881,5.382382000072923,9.349989000104866,89.99951004735047,89.99976789114363,89.99966772920476,ortho,Pnma,0.0,-9.6000272715,-2.9911010485,0.085932194166669,False,5.095437039969209,1.5603,False,249.26258918175745,,
mp-677041,ZrCuF3,20,Zr1 Cu1 F3,3.39926,5.546500404451892,19.651501089000075,95.41928911124934,91.20517635526684,105.6883204646233,tri,P1,0.002895999999999,-6.1140878515,-2.437819010999999,0.601922857410717,False,3.965621410035901,0.474099999999999,False,354.69286361791535,,
mp-1016871,ZrHgO3,5,Zr1 Hg1 O3,4.18501,4.18501,4.18501,90.0,90.0,90.0,cubic,Pm-3m,0.0440064,-6.932652041999999,-2.192400905500001,0.34979274050000103,False,7.698366167909752,0.0,False,73.29755705300552,"{'voigt': 146.764, 'reuss': 146.764, 'vrh': 146.764}","{'voigt': 48.451, 'reuss': 35.674, 'vrh': 42.062}"
mp-754513,ZrMnO3,10,Zr1 Mn1 O3,5.472075561637467,5.812280110234709,5.472013754624891,118.0757670578724,119.99845207409997,61.92016265603442,trig,R3c,0.0,-9.569091926,-3.058372138586206,0.042826421000004,False,5.09657261750533,2.5635,True,126.52058400805868,,
mp-754980,ZrMnO3,10,Zr1 Mn1 O3,5.496104440860181,5.496020481834197,5.823815892205557,90.00097179267708,61.844624058591144,60.00094249787875,trig,R-3,0.0,-9.56466298,-3.053943192586206,0.047255367000005,False,5.047528871660136,2.8707000000000003,False,127.74990701423613,,
mp-1246219,ZrMoN3,20,Zr1 Mo1 N3,8.568583653093725,5.86929050076387,7.950894935726669,122.28868184219127,116.2823199879483,84.6972407902125,tri,P-1,0.0006425,-9.7748100355,-0.893173240499999,0.11284373530000001,False,5.11590953295144,0.0,False,297.55737394676356,,
mp-29658,ZrNiH3,10,Zr1 Ni1 H3,3.508491179105054,4.29288545,5.52038354018275,90.0,108.52845585496156,90.0,ortho,Cmcm,0.0,-5.438467610999998,-0.535800285749997,0.0,True,6.4428845179515335,0.0,False,78.83576680471417,"{'voigt': 169.922, 'reuss': 163.456, 'vrh': 166.689}","{'voigt': 71.418, 'reuss': 67.376, 'vrh': 69.397}"
mp-1188025,ZrNiO3,5,Zr1 Ni1 O3,3.690521,3.690521,3.690521,90.0,90.0,90.0,cubic,Pm-3m,1.6399918,-7.600537864,-1.766193799,1.009210973999997,False,6.538318643506497,0.0,False,50.26469396929328,,
mp-972296,ZrOsO3,5,Zr1 Os1 O3,3.926307999999999,3.926307999999999,3.926307999999999,90.0,90.0,90.0,cubic,Pm-3m,0.0002649,-8.15535153,-1.231561315,1.459629599000003,False,9.038334595947893,0.0,False,60.52754994516142,"{'voigt': 220.397, 'reuss': 220.397, 'vrh': 220.397}","{'voigt': -13.753, 'reuss': -398.763, 'vrh': -206.258}"
mp-1068577,ZrPbO3,5,Zr1 Pb1 O3,4.208933,4.208933,4.208933,90.0,90.0,90.0,cubic,Pm-3m,0.0,-8.214781556,-2.793935413,0.08222417481249701,False,7.715050540923727,2.2792,False,74.56174053380131,,
mp-1100803,ZrPbO3,20,Zr1 Pb1 O3,4.295244326386218,8.444227195807205,8.429317,90.0,90.0,90.52704893243465,mono,Pm,0.000611,-8.260584683000001,-2.83973854,0.036421047812496006,False,7.52649902407487,2.6290999999999993,False,305.71855243585884,,
mp-20337,ZrPbO3,5,Zr1 Pb1 O3,4.276790774412281,4.276790774412281,4.176356,90.0,90.0,91.63483789119584,ortho,Amm2,1.2e-06,-8.264104421999999,-2.843258278999999,0.032901308812498004,False,7.533522789829773,2.6727,False,76.35838009464848,"{'voigt': 120.978, 'reuss': 116.391, 'vrh': 118.685}","{'voigt': 44.282, 'reuss': 24.083, 'vrh': 34.182}"
mp-542903,ZrPbO3,40,Zr1 Pb1 O3,5.978924,8.317035,11.945823,90.0,90.0,90.0,ortho,Pbam,1.7500000000000002e-05,-8.271159751,-2.850313608,0.025845979812496003,False,7.747064328868598,2.7752,True,594.0289866900115,"{'voigt': 113.882, 'reuss': 108.363, 'vrh': 111.123}","{'voigt': 61.983, 'reuss': 60.842, 'vrh': 61.413}"
mp-647557,ZrPbO3,40,Zr1 Pb1 O3,6.042341,8.386099,11.956119,90.0,90.0,90.0,ortho,Pba2,0.003750899999999,-8.26661826725,-2.84577212425,0.030387463562497004,False,7.596076936112935,3.2094,False,605.8365142698349,,
mp-755798,ZrPbO3,20,Zr1 Pb1 O3,5.8893249999999995,5.92742,8.354309,90.0,90.0,90.0,ortho,Pnma,0.000136,-8.2620602365,-2.841214093499999,0.034945494312497,False,7.889928130597705,2.9213,False,291.6364190475536,,
mp-20244,ZrPbS3,20,Zr1 Pb1 S3,3.802192,9.20157497,14.02088112,90.0,90.0,90.0,ortho,Pnma,0.0,-6.354341739,-1.419256458499998,0.0027717610000010003,False,5.343373851309391,1.247099999999999,True,490.536716432109,,
mp-10706,ZrRu3C,5,Zr1 Ru3 C1,4.0755165,4.0755165,4.0755165,90.0,90.0,90.0,cubic,Pm-3m,4.1e-06,-9.44637781,-0.32646306150000104,0.0,True,9.97017072361262,0.0,False,67.69365555236604,"{'voigt': 258.82, 'reuss': 258.82, 'vrh': 258.82}","{'voigt': 158.649, 'reuss': 155.854, 'vrh': 157.252}"
mp-1183043,ZrSiO3,5,Zr1 Si1 O3,3.663472999999999,3.663472999999999,3.663472999999999,90.0,90.0,90.0,cubic,Pm-3m,1.4741266,-7.983369882,-2.219989547,1.072800042249998,False,5.650489094658311,0.0,False,49.16759723607481,,
mp-17324,ZrSnS3,20,Zr1 Sn1 S3,3.7444161400000002,9.44076215,14.08601102,90.0,90.0,90.0,ortho,Pnma,0.0,-6.391487313000001,-1.397017075499999,0.0,True,4.08351704818253,0.9944000000000001,False,497.9424921421011,,
mp-1183045,ZrTiO3,5,Zr1 Ti1 O3,3.859099,3.859099,3.859099,90.0,90.0,90.0,cubic,Pm-3m,0.095130899999999,-8.98683964,-2.729424507666666,0.7219286570000041,False,5.405552075029354,0.0,False,57.47219178112415,,
mp-1183044,ZrTlO3,5,Zr1 Tl1 O3,4.212646,4.212646,4.212646,90.0,90.0,90.0,cubic,Pm-3m,0.0018433,-7.606904402,-2.454293249666669,0.23488012733333002,False,7.632104481985796,0.0,False,74.75924335094658,,
mp-1246572,ZrWN3,20,Zr1 W1 N3,6.380903403792914,7.871530648772893,5.750674860394995,94.29900768840355,92.62872463391622,108.15389749056568,tri,P-1,0.0009341999999990001,-21.302579216208333,-1.001811556458332,0.141286391666668,False,7.71584251985777,0.0,False,272.96074749716735,,
mp-1016883,ZrZnO3,5,Zr1 Zn1 O3,4.143062,4.143062,4.143062,90.0,90.0,90.0,cubic,Pm-3m,0.0675725,-7.176823657999999,-2.246558206999999,0.7579720910000011,False,4.7781155825131005,0.0,False,71.11550484229129,"{'voigt': 149.835, 'reuss': 149.835, 'vrh': 149.835}","{'voigt': 55.3, 'reuss': 34.822, 'vrh': 45.061}"
mp-505418,CsDyI3,20,Cs1 Dy1 I3,8.428655,8.683553,12.186846,90.0,90.0,90.0,ortho,Pnma,0.091312499999999,-3.491564266,-1.4737357672643672,0.10072529455555401,False,5.034833118694861,0.0,False,891.9634533119257,,
mp-638685,CsEuBr3,20,Cs1 Eu1 Br3,8.16822568,8.39819241,11.78891638,90.0,90.0,90.0,ortho,Pnma,28.0000006,-5.513263593,-2.293727464931035,0.0,True,4.308584189992555,0.9373999999999991,True,808.6999868930995,,
mp-1068377,CsEuCl3,5,Cs1 Eu1 Cl3,5.63313725,5.6331413999999995,5.6331413999999995,90.0,90.0,90.0,cubic,Pm-3m,7.0000004,-18.906850874,-2.4913700825,0.010537762000009,False,3.6343595497693952,0.6374000000000001,True,178.75229994418413,,
mp-1213256,CsEuCl3,20,Cs1 Eu1 Cl3,7.84786518,7.96416394,11.21136964,90.0,90.0,90.0,ortho,Pnma,28.0000005,-18.917388636000002,-2.501907844500002,0.0,True,3.708421783584658,0.0,True,700.7294922288154,,
mp-8396,CsEuF3,5,Cs1 Eu1 F3,4.76988464,4.76988464,4.76988464,90.0,90.0,90.0,cubic,Pm-3m,6.9976264,-18.175124732,-3.576914553500001,0.015776123999998,False,5.230939299561771,0.0,False,108.52345886680294,,
mp-1185550,CsEuO3,5,Cs1 Eu1 O3,4.602523,4.602523,4.602523,90.0,90.0,90.0,cubic,Pm-3m,4.0012924,-7.172962434,-1.966817623931036,0.29603544799999804,False,5.669343712101113,0.0,False,97.4962479003604,,
mp-1079847,CsFeBr3,10,Cs1 Fe1 Br3,6.144093,7.621740966753069,7.621740966753069,119.99999103104284,90.0,90.0,hex_,P6_3/mmc,7.9999822,-4.103058309,-1.247140321931034,0.12124925800000001,False,4.603573068632081,0.0,False,309.0984456395667,,
mp-29400,CsFeCl3,10,Cs1 Fe1 Cl3,5.848597,7.500080164184913,7.5000800000000005,60.000000724151356,90.0,90.0,hex_,P6_3/mmc,8.0000004,-4.6299925129999995,-1.647120450931034,0.0,True,3.439917915607558,0.0,False,284.91422517930204,"{'voigt': 14.549, 'reuss': -23.135, 'vrh': -4.293}","{'voigt': 78.661, 'reuss': -0.0, 'vrh': 39.33}"
mp-555302,CsFeF3,30,Cs1 Fe1 F3,6.300873177237025,6.300873177237025,14.847482,90.0,90.0,119.99999136094952,hex_,P6_3/mmc,24.0012438,-5.765303037666666,-2.744665591097701,0.007480315583329001,False,4.7962438313059135,3.424699999999999,True,510.4873134739285,,
mp-558694,CsFeF3,5,Cs1 Fe1 F3,4.31177,4.31177,4.31177,90.0,90.0,90.0,cubic,Pm-3m,3.9996105,-5.459423127999999,-2.438785681431034,0.313360225249996,False,5.090590905712118,0.0,False,80.16167060494224,,
mp-562726,CsGaS3,20,Cs1 Ga1 S3,6.467407468137543,7.6568887303442255,12.64182486,90.0,90.0,107.62892839078648,mono,P2_1/c,0.0,-13.117701489500002,-0.9883059401875011,0.0,True,3.3267584966791,2.647199999999999,False,596.6264354825277,,
mp-510283,CsGaSe3,20,Cs1 Ga1 Se3,13.15157149,6.773097370609296,7.814851753851668,73.89929472555865,90.0,90.0,mono,P2_1/c,0.0,-16.834732557000002,-0.9394003184375,0.0,True,4.36484250813304,1.8736000000000002,False,668.8176749754033,,
mp-984082,CsGdO3,5,Cs1 Gd1 O3,4.5454550000000005,4.5454550000000005,4.5454550000000005,90.0,90.0,90.0,cubic,Pm-3m,5.0001556,-8.231932934,-2.268186058931034,0.21978663049999903,False,5.97903494369514,0.0,False,93.91437828700504,,
mp-1068340,CsGeBr3,5,Cs1 Ge1 Br3,5.668240863754826,5.668240863754826,5.668241398299477,88.89687629368005,88.89687629368005,88.89686455714903,trig,R3m,0.0,-3.535090979999998,-1.448571663931033,0.0,True,4.062130257958361,0.7856000000000001,True,182.01469342992672,,
mp-570223,CsGeBr3,5,Cs1 Ge1 Br3,5.53332714,5.53332714,5.53332714,90.0,90.0,90.0,cubic,Pm-3m,0.0,-3.518245507999998,-1.4317261919310331,0.016845471999999,False,4.364165908542947,0.760699999999999,True,169.417801492696,"{'voigt': 22.345, 'reuss': 22.345, 'vrh': 22.345}","{'voigt': 13.009, 'reuss': 11.854, 'vrh': 12.431}"
mp-642739,CsGeBr3,5,Cs1 Ge1 Br3,5.788630720488655,5.788630720488655,5.728079177413751,88.19674636002576,88.19674636002576,90.40477708945282,mono,Cm,0.000330999999999,-3.53446659,-1.447947273931035,0.000624389999998,False,3.856061589736091,1.4434,True,191.7415934285745,,
mp-22988,CsGeCl3,5,Cs1 Ge1 Cl3,5.461891123863339,5.461891123863339,5.461891073079682,89.54623144876582,89.54623144876582,89.54621700859916,trig,R3m,0.0,-3.9255326100000003,-1.712059218931035,0.0,True,3.17893909205653,2.153499999999999,False,162.92527551742106,,
mp-28377,CsGeI3,5,Cs1 Ge1 I3,8.706732698398408,6.128081833379224,6.065933977616616,92.17638736819829,135.86282611329153,86.9667611927108,trig,R3m,0.0,-3.090217248000002,-1.071458283931036,0.0,True,4.325382720624483,0.9905,True,225.06811678964056,,
mp-642690,CsGeI3,5,Cs1 Ge1 I3,6.257706107131749,6.257706107131749,5.988627913234383,88.57680362431255,88.57680362431255,92.31435517196924,mono,Cm,0.0022664,-3.081577474,-1.062818509931035,0.008639774000002001,False,4.157331105019944,1.1901,True,234.16603554860086,,
mp-984051,CsGeO3,5,Cs1 Ge1 O3,4.064553,4.064553,4.064553,90.0,90.0,90.0,cubic,Pm-3m,1.0095478,-5.357084634,-1.283956635931035,0.598347514999998,False,6.269941171455406,0.0,False,67.14881807585644,"{'voigt': 96.084, 'reuss': 96.084, 'vrh': 96.084}","{'voigt': 37.239, 'reuss': -52.473, 'vrh': -7.617}"
mp-1194175,CsHgBr3,30,Cs1 Hg1 Br3,12.631008513459312,12.631008513459312,14.509369559122892,56.78275533725171,56.78275533725171,37.307972833249785,mono,C2/c,0.0,-2.570832108666669,-1.346983956097705,0.003369847333327,False,4.988906977402098,1.9018000000000002,False,1144.7397653926716,,
mp-27718,CsHgBr3,5,Cs1 Hg1 Br3,5.695005,5.695005,5.695005,90.0,90.0,90.0,cubic,Pm-3m,1.5600000000000003e-05,-2.5326791760000003,-1.308831023431036,0.041522779999997005,False,5.153218960924287,0.0,False,184.7065638708021,"{'voigt': 22.568, 'reuss': 22.568, 'vrh': 22.568}","{'voigt': 8.457, 'reuss': 8.27, 'vrh': 8.363}"
mp-1197432,CsHgCl3,40,Cs1 Hg1 Cl3,15.707882,9.552009,10.968859943470743,55.08005614174955,90.0,90.0,mono,P2_1/c,0.004824,-2.887638984,-1.5368367564310361,0.018041189333335,False,4.329975585386732,0.9505,True,1349.4681188741997,,
mp-1228834,CsHgCl3,5,Cs1 Hg1 Cl3,5.4002117988976135,5.4002117988976135,5.4002118085986215,89.83657628544536,89.83657628544536,89.83658393746161,trig,R3m,0.000359799999999,-2.871682494,-1.520880266431036,0.033997679333335,False,4.638002710132171,0.0,False,157.4806110833571,,
mp-29845,CsHgCl3,45,Cs1 Hg1 Cl3,13.387320802676875,13.387003181974237,9.469666016233408,90.00155690757246,89.99357248688176,120.00013670497792,trig,P3_2,0.0,-2.905680173333336,-1.554877945764372,0.0,True,4.4725877396285565,2.0,False,1469.7441149643835,,