mp_id,formula,sites,composition,a_edge (angstrom),b_edge (angstrom),c_edge (angstrom),alpha_ang (deg),beta_ang (deg),gamma_ang (deg),crystal_system,space_group,total_magnetisation (bohr),energy_per_atom (eV/atom),formation_energy (eV/atom),energy_above_hull (eV/atom),stable,density (g/cc),band_gap (eV),direct_bandgap,volume (cubic-angstrom),bulk_modulus (GPa),shear_modulus (GPa)
mp-5504,BaCO3,20,Ba1 C1 O3,5.35922589,6.41636356,8.97996254,90.0,90.0,90.0,ortho,Pnma,0.0,-7.881547381000004,-2.683242691500004,0.0,True,4.2447257704252515,4.397399999999999,False,308.7916524320886,"{'voigt': 54.259, 'reuss': 49.486, 'vrh': 51.872}","{'voigt': 22.507, 'reuss': 21.321, 'vrh': 21.914}"
mp-674478,BaCO3,10,Ba1 C1 O3,7.626608106251757,7.626608106251757,7.6266078830148984,41.66562432952348,41.66562432952348,41.665621980179104,trig,R-3c,8.550000000000003e-05,-7.83164051,-2.6333358204999993,0.049906871000008006,False,3.698107340432591,4.159499999999999,False,177.2171227211266,,
mp-675324,BaCO3,10,Ba1 C1 O3,4.486155,5.466677,7.060908,90.0,90.0,90.0,ortho,Pnn2,0.000102799999999,-7.805723578999999,-2.607418889499999,0.075823802000008,False,3.784660713229556,4.0966,True,173.1642522391652,,
mp-676020,BaCO3,10,Ba1 C1 O3,4.621716800097665,4.621716800097665,9.061459814036258,70.80446822545609,70.80446822545609,71.02264189455168,mono,C2/m,0.000277,-7.847781473,-2.6494767835,0.033765908000007006,False,3.9140669807909143,4.0287,False,167.4391229382875,,
mp-762225,BaCO3,10,Ba1 C1 O3,5.403903,4.580137,6.982292723873799,72.64213507066869,90.0,90.0,mono,P2_1,0.0001414,-7.868310547,-2.6700058575,0.013236834000007,False,3.973227229139603,4.474,False,164.9460009684019,,
mp-1183285,BaCaO3,5,Ba1 Ca1 O3,4.464426,4.464426,4.464426,90.0,90.0,90.0,cubic,Pm-3m,1.9999337,-6.033683868,-2.279992301,0.344531053999998,False,4.206416658059623,0.0,False,88.98091885869187,,
mp-583645,BaCaSn3,40,Ba1 Ca1 Sn3,9.35114016521276,9.35114016521276,17.39672307,90.0,90.0,118.55420975326398,ortho,Cmce,6e-07,-3.7989578767500003,-0.608299799749999,0.001525398249998,False,5.304326688550355,0.0,False,1336.2008230915474,,
mp-1227962,BaCd3Ga,5,Ba1 Cd3 Ga1,6.754915387237158,6.754915387237158,6.754915387237158,138.3921325783688,138.3921325783688,60.302957128849116,tet,I4mm,0.0,-1.839842727999999,-0.274422421499998,0.001069449,False,6.720678033271005,0.0,False,134.48095271220126,,
mp-1183292,BaCdO3,5,Ba1 Cd1 O3,4.302665,4.302665,4.302665,90.0,90.0,90.0,cubic,Pm-3m,0.4612154,-5.182268727999999,-1.6376950989999992,0.20288103799999602,False,6.206805514125855,0.0,False,79.65491918762994,,
mp-3187,BaCeO3,20,Ba1 Ce1 O3,6.25973589,6.24763379,8.81258554,90.0,90.0,90.0,ortho,Pnma,0.0,-8.129798318000002,-3.589836753000001,0.0,True,6.272009404625958,2.2207,True,344.64733173556965,,
mp-3316,BaCeO3,10,Ba1 Ce1 O3,6.23030760410079,6.235577713059227,6.23557765532169,60.70769916136749,60.02796596549258,60.02795864005594,ortho,Imma,0.0,-8.129155707,-3.589194142000001,0.000642611000001,False,6.274068485527652,2.2112,False,172.2671111186429,,
mp-4900,BaCeO3,10,Ba1 Ce1 O3,6.209312551136113,6.209312551136113,6.209312818261107,60.82794012879424,60.82794012879424,60.82794472202936,trig,R-3c,0.0,-8.127277154000002,-3.587315589,0.0025211640000000002,False,6.267612673875872,2.2279,True,172.44455093202092,,
mp-5663,BaCeO3,5,Ba1 Ce1 O3,4.474193,4.474193,4.474193,90.0,90.0,90.0,cubic,Pm-3m,0.0001896,-8.089464422,-3.5495028570000002,0.040333896000001,False,6.033613517741434,2.299,False,89.56619857936725,"{'voigt': 111.403, 'reuss': 111.403, 'vrh': 111.403}","{'voigt': 53.213, 'reuss': 51.56, 'vrh': 52.386}"
mp-1080782,BaClO3,10,Ba1 Cl1 O3,3.783979,3.783979,13.015271,90.0,90.0,90.0,tet,P4/nmm,1.992705899999999,-4.514344352,-0.7920654290000001,0.916970865159996,False,3.93445543983132,0.0,False,186.35911971052624,,
mp-1182237,BaClO3,10,Ba1 Cl1 O3,4.080162,4.089748,12.118708872909934,89.76972807227938,90.0,90.0,mono,P2_1/m,2.0000439,-4.934675693,-1.21239677,0.496639524159996,False,3.62583870587884,0.0,False,202.2212546626604,,
mp-1182337,BaClO3,10,Ba1 Cl1 O3,4.618091,4.923813488955283,9.161635066103758,78.57077948827121,86.63636931598484,87.40468142229982,tri,P1,2.0008761,-4.900270702,-1.177991779,0.5310445151599961,False,3.599171629734427,0.17270000000000002,False,203.71955764759088,,
mp-1076782,BaCoO3,5,Ba1 Co1 O3,3.981593,3.981593,3.981593,90.0,90.0,90.0,cubic,Pm-3m,3.579829,-6.604887678,-1.825632743,0.22222526900000003,False,6.425811832176516,0.0,False,63.120523575171546,,
mp-1283250,BaCoO3,20,Ba1 Co1 O3,5.726482657571924,5.722637803283901,9.70762786877608,89.80945836758698,89.71405459088905,59.96179190384292,mono,C2/m,0.0037181,-6.8260577520000005,-2.046802816999999,0.0010551950000010002,False,5.891197337198422,1.1424,False,275.39434449527283,,
mp-18965,BaCoO3,20,Ba1 Co1 O3,5.683698159352416,5.684491769608061,9.41555662240934,90.21787658786157,90.16958531134462,60.00059219357988,hex_,P6_3/mmc,3.9988418,-6.827112947000001,-2.047858012,0.0,True,6.158290639687289,0.0,False,263.4501234018471,,
mp-19271,BaCrO3,20,Ba1 Cr1 O3,5.750352941627148,5.750352941627148,9.452074,90.0,90.0,120.00001083369136,hex_,P6_3/mmc,2.9979547,-7.608645989,-2.325464904,0.294836223625002,False,5.823701509693755,0.0,False,270.6740991655128,,
mp-540926,BaCrO3,30,Ba1 Cr1 O3,5.728244153220863,5.728244153220863,13.952037,90.0,90.0,120.00000176965408,hex_,P6_3/mmc,12.0000005,-7.819695598,-2.536514513000001,0.083786614625002,False,5.96383723583796,0.0,False,396.4708704169665,,
mp-557081,BaCrO3,70,Ba1 Cr1 O3,5.740694139124465,5.740694139124465,32.846124,90.0,90.0,120.00000160336025,hex_,P6_3/mmc,28.0272763,-7.8218301582857155,-2.538649073285715,0.081652054339287,False,5.885322716359031,0.0,False,937.4401924422201,,
mp-1076800,BaCuO3,5,Ba1 Cu1 O3,4.003691,4.003691,4.003691,90.0,90.0,90.0,cubic,Pm-3m,0.630671,-5.8355790160000005,-1.663166091,0.08273291958333401,False,6.439350784555453,0.0,False,64.17733153205626,,
mp-1183286,BaDyO3,5,Ba1 Dy1 O3,4.428139,4.428139,4.428139,90.0,90.0,90.0,cubic,Pm-3m,0.9998442,-7.3938727,-3.117626003333332,0.10872087100000001,False,6.651910634066194,0.0,False,86.82878720439085,,
mp-1183291,BaErO3,5,Ba1 Er1 O3,4.395468,4.395468,4.395468,90.0,90.0,90.0,cubic,Pm-3m,1.000491,-7.430702977999999,-3.164587624999998,0.08670264150000201,False,6.8944015811351465,0.0,False,84.92105246203396,,
mp-1183310,BaEuO3,5,Ba1 Eu1 O3,4.437278,4.437278,4.437278,90.0,90.0,90.0,cubic,Pm-3m,5.0267218,-8.183482982,-2.773289008,0.16508361100000002,False,6.410643365991762,0.0,False,87.36750141389481,,
mp-1192651,BaFeO3,30,Ba1 Fe1 O3,5.644466395672615,5.644466655576839,13.690474460000594,89.9999768458424,90.00002746207848,119.99965499586602,hex_,P6_3/mmc,20.0075123,-7.196856963333332,-2.1502811303333322,0.0,True,6.361031509429975,0.0,False,377.7430168733332,,
mp-19035,BaFeO3,5,Ba1 Fe1 O3,3.95157012,3.95156495,3.95156495,90.0,90.0,90.0,cubic,Pm-3m,3.9875053,-7.148832340666665,-2.102256507666665,0.048024622666666,False,6.490300408521839,0.0,False,61.70323615127433,,
mp-705845,BaFeO3,20,Ba1 Fe1 O3,13.050380726429863,13.050380726429863,13.050381146946208,27.403776777827506,27.403776777827506,27.40377804320562,trig,R3m,13.9953491,-6.7358719659999995,-1.6892961329999991,0.46098499733333204,False,3.8551060801373573,0.0,False,415.52427401475444,,
mp-1227967,BaGa3Sn,5,Ba1 Ga3 Sn1,6.407779704106096,6.407779704106096,6.407779704106096,135.11793671077095,135.11793671077095,65.34700762367181,tet,I4mm,0.0084669,-3.410123002,-0.4075560295,0.0193654795,False,5.984186776506256,0.0,False,129.08900839283686,,
mp-1069708,BaGe3Ir,5,Ba1 Ge3 Ir1,6.060256347771853,6.060256347771853,6.060256347771853,135.64909467296133,135.64909467296133,64.52330936633383,tet,I4mm,0.0,-5.450191655999998,-0.524893118999997,0.0,True,8.476012437017284,0.0,False,107.25389637075739,,
mp-1068447,BaGe3Pd,5,Ba1 Ge3 Pd1,6.120480279566786,6.120480279566786,6.120480279566786,135.8851656379695,135.8851656379695,64.15792096590006,tet,I4mm,0.0,-4.76390768,-0.570319616999999,0.0,True,6.9954134984481815,0.0,False,109.58838808171718,,
mp-22346,BaGe3Pt,5,Ba1 Ge3 Pt1,4.599647444958798,4.5996472328335845,6.0884976106403625,112.19853074069938,112.19852843905775,90.04224809227341,tet,I4mm,0.0,-5.004205486000001,-0.632367121,0.0,True,8.394102908482864,0.0,False,108.86763422182199,"{'voigt': 74.435, 'reuss': 74.398, 'vrh': 74.417}","{'voigt': 40.393, 'reuss': 40.249, 'vrh': 40.321}"
mp-1070247,BaGe3Rh,5,Ba1 Ge3 Rh1,6.07321281025473,6.07321281025473,6.07321281025473,135.99540269290307,135.99540269290307,63.987442809318985,tet,I4mm,0.0,-5.193392075999998,-0.562918800999997,0.0,True,7.132739647652549,0.0,False,106.66029636464248,,
mp-1227958,BaGeAu3,5,Ba1 Ge1 Au3,6.137866081939155,6.137866081939155,6.137866081939155,133.95467138238655,133.95467138238655,67.15881598442591,tet,I4mm,0.0,-3.784690720000003,-0.511960961000002,0.0,True,11.282997887942614,0.0,False,117.86499185060907,,
mp-1016823,BaGeO3,5,Ba1 Ge1 O3,3.980388999999999,3.980388999999999,3.980388999999999,90.0,90.0,90.0,cubic,Pm-3m,0.0015562,-6.740814964,-2.463637802000001,0.2323634095,False,6.792562890088615,0.0,False,63.06327955363161,"{'voigt': 137.118, 'reuss': 137.118, 'vrh': 137.118}","{'voigt': 109.641, 'reuss': 97.1, 'vrh': 103.37}"
mp-13863,BaGeO3,20,Ba1 Ge1 O3,4.64225534,5.75213457,12.94668869,90.0,90.0,90.0,ortho,P2_12_12_1,0.0,-6.9731783735000015,-2.696001211500001,0.0,True,4.956252732217032,3.5519,False,345.7138411355125,,
mp-676865,BaGeO3,30,Ba1 Ge1 O3,7.770673,9.183348960133989,9.377144299007774,63.73189069358776,71.66486798273726,78.27756829715767,tri,P1,0.0006789,-6.521994367333334,-2.244817205333333,0.45118400616666604,False,4.525060472578735,1.4284,False,567.9852833160062,,
mp-1195469,BaGeS3,40,Ba1 Ge1 S3,5.8041549,13.489559873321548,15.556184732658764,64.57360246743718,90.0,90.0,mono,P2_1/c,0.0,-5.224138662749996,-1.432722363249995,0.0,True,3.697401324024579,2.4497,False,1100.0027687662705,,
mp-998552,BaHfO3,5,Ba1 Hf1 O3,4.170042392817354,4.169091206921486,4.170376634314528,89.9994643006345,89.99434030651166,89.99884047112508,cubic,Pm-3m,0.0,-9.130724048000001,-3.786714650999999,0.0,True,8.332451498508037,3.5394,False,72.50319461578196,"{'voigt': 159.196, 'reuss': 159.196, 'vrh': 159.196}","{'voigt': 102.846, 'reuss': 101.812, 'vrh': 102.329}"
mp-1105549,BaHfS3,20,Ba1 Hf1 S3,7.01916792,7.04466639,9.97598706,90.0,90.0,90.0,ortho,Pnma,0.0,-6.997449220499999,-2.139200685999998,0.0,True,5.547751676715811,1.252399999999999,True,493.2895787527485,,
mp-1383356,BaHfS3,5,Ba1 Hf1 S3,5.011663892196383,5.011663892196383,5.011664262799833,89.98687818599396,89.98687818599396,89.98688777031477,cubic,Pm-3m,3.3900000000000004e-05,-6.969186516000001,-2.1109379815000002,0.028262704499998,False,5.435170255671467,0.8329000000000001,False,125.8768336086791,,
mp-998352,BaHfS3,5,Ba1 Hf1 S3,5.009601493422406,5.011652012573199,5.012407,89.99594145768837,90.04371295617636,90.0068196634759,trig,R3m,4.93e-05,-6.96909416,-2.110845625499999,0.028355060499999002,False,5.436616236620325,0.8438999999999991,False,125.84335405165709,,
mp-998361,BaHfS3,5,Ba1 Hf1 S3,5.786308240650165,5.786308240650165,4.091538,90.0,90.0,120.00000275154484,ortho,Cmmm,0.477922399999999,-5.426521662000001,-0.568273127499999,1.570927558499998,False,5.766849582479653,0.0,False,118.6370499391143,,
mp-998419,BaHfS3,20,Ba1 Hf1 S3,3.883518,8.803535,14.515039,90.0,90.0,90.0,ortho,Pnma,0.0038439,-6.9899430095,-2.131694474999999,0.007506210999999,False,5.514654763774347,0.866499999999999,True,496.25011988220575,,
mp-1227995,BaIn3Pt,5,Ba1 In3 Pt1,6.772628051691918,6.772628051691918,6.772628051691918,138.33117604996963,138.33117604996963,60.39616392403752,tet,I4mm,0.0,-3.7833518079999973,-0.529825909999996,0.0023114265000010003,False,8.273108485028235,0.0,False,135.85713004346914,,
mp-1183288,BaInO3,5,Ba1 In1 O3,4.285795,4.285795,4.285795,90.0,90.0,90.0,cubic,Pm-3m,1.0001248,-6.066852474,-2.162446134333333,0.077204864750005,False,6.331161973233718,0.0,False,78.72164877180886,,
mp-1227991,BaInO3,10,Ba1 In1 O3,4.281839716115492,4.281839716115492,8.649932,90.0,90.0,90.68375702722233,ortho,Amm2,2.0001337,-6.046394532,-2.141988192333333,0.097662806750006,False,6.285864600550045,0.0,False,158.57786982262536,,
mp-4307,BaIrO3,30,Ba1 Ir1 O3,5.794282277857715,5.794282277857715,14.624141044316175,89.0506326149964,89.0506326149964,119.71560359351908,mono,C2/c,1.663136199999999,-7.096196429000001,-1.975938002,0.047177416625011,False,8.826014378938,0.0,False,426.1880020632002,,
mp-542897,BaIrO3,30,Ba1 Ir1 O3,5.832748880505095,5.832748880505095,14.974346833486765,78.40800857193155,78.40800857193155,59.54336277642833,mono,C2/m,2.1983903,-7.127117726333334,-2.006859299333334,0.016256119291678,False,8.804769592656054,0.0,False,427.2163393665766,,
mp-5660,BaIrO3,5,Ba1 Ir1 O3,4.077295,4.077295,4.077295,90.0,90.0,90.0,cubic,Pm-3m,0.003885,-7.000139584,-1.879881156999999,0.14323426162501102,False,9.249072757378565,0.0,False,67.78231600459345,,
mp-10250,BaLiF3,5,Ba1 Li1 F3,3.98858164,3.98858164,3.98858164,90.0,90.0,90.0,cubic,Pm-3m,0.0,-5.6553320299999985,-3.742865088166665,0.021903220000002003,False,5.266935916551588,6.564299999999999,True,63.45348177862734,"{'voigt': 69.602, 'reuss': 69.602, 'vrh': 69.602}","{'voigt': 42.363, 'reuss': 42.315, 'vrh': 42.339}"
mp-23818,BaLiH3,5,Ba1 Li1 H3,4.01142218,4.01142218,4.01142218,90.0,90.0,90.0,cubic,Pm-3m,0.0,-3.412171436,-0.6094920114166661,0.0,True,3.789069851402205,2.2146,False,64.54983172455981,,
mp-632808,BaLiH3,5,Ba1 Li1 H3,5.065786,5.065786,5.065786,90.0,90.0,90.0,cubic,Pm-3m,0.0,-2.791583514,0.011095910583333,0.620587921999998,False,1.881426287390243,1.1987,False,129.99915167544583,"{'voigt': 16.673000000000002, 'reuss': 16.673000000000002, 'vrh': 16.673000000000002}","{'voigt': 8.755, 'reuss': 4.124, 'vrh': 6.439}"
mp-1183284,BaLiO3,5,Ba1 Li1 O3,4.086802,4.086802,4.086802,90.0,90.0,90.0,cubic,Pm-3m,3.0,-5.387844742,-1.653488577666667,0.308695114999993,False,4.6773648604201465,0.0,False,68.25756506368646,,
mp-1227881,BaMgIn3,5,Ba1 Mg1 In3,7.1826092428717505,7.1826092428717505,7.1826092428717505,140.58295029558218,140.58295029558218,56.969232297526226,tet,I-4m2,0.0,-2.705268706000001,-0.33987546900000004,0.0,True,5.672033286869921,0.0,False,148.1612556831598,,
mp-1016852,BaMnO3,5,Ba1 Mn1 O3,4.033313,4.033313,4.033313,90.0,90.0,90.0,cubic,Pm-3m,3.0024338,-7.54118007,-2.356205420586207,0.133739453666667,False,6.080659114987635,0.0,False,65.61237804092859,,
mp-1205336,BaMnO3,20,Ba1 Mn1 O3,4.881905190012067,5.7220831731238375,9.909149845684341,90.00017607354283,90.00024693300679,90.00000628616363,hex_,P6_3mc,12.0000015,-7.667293149000001,-2.482318499586207,0.007626374666666,False,5.7652284921210075,1.8948,True,276.8088065448443,,
mp-18840,BaMnO3,15,Ba1 Mn1 O3,7.7376054950534225,7.7376054950534225,7.737604855583571,43.16578740942451,43.16578740942451,43.165785769697855,trig,R-3m,8.9998148,-7.674919523666667,-2.489944874252874,0.0,True,6.088581271505338,0.8952999999999991,False,196.58101951817102,,
mp-19156,BaMnO3,10,Ba1 Mn1 O3,5.725704520000839,5.725705403935608,4.8827336500000005,90.0,90.0,120.00005572554133,hex_,P6_3/mmc,6.0011318,-7.6671448255,-2.482170176086207,0.0077746981666670005,False,5.755924357513797,0.0,False,138.62812636506428,,
mp-19267,BaMnO3,30,Ba1 Mn1 O3,9.930155459918854,9.930141426889726,4.9010561800165435,89.99987451579149,90.00029651021724,120.00013373866763,hex_,P6_3cm,17.9999981,-7.669312416,-2.484337766586208,0.005607107666667,False,5.719479103329138,2.0901,False,418.53444768251074,,
mp-35078,BaMnO3,20,Ba1 Mn1 O3,5.666588820001131,5.666589081338952,9.250430750000014,89.99999844024859,89.99999857336256,59.999923615336904,hex_,P6_3/mmc,11.9999985,-7.661692172500001,-2.476717523086208,0.013227351166666,False,6.203842341526642,0.7543000000000001,True,257.2383259452137,,
mp-557535,BaMnO3,40,Ba1 Mn1 O3,5.700109008661676,5.700109222392395,18.87427413000008,90.00000969869423,89.99999135030852,120.00001132265103,hex_,P6_3/mmc,24.0000003,-7.6736989640000015,-2.4887243145862072,0.0012205596666660001,False,6.009789264567697,0.8359000000000001,False,531.0888445860152,,
mp-675227,BaMnO3,25,Ba1 Mn1 O3,12.31945691208757,12.31945691208757,12.319456921029197,26.78387694623503,26.78387694623503,26.783873959666394,trig,R-3m,15.0000004,-7.673137790200001,-2.488163140786207,0.001781733466666,False,5.958508250284639,0.8679000000000001,False,334.78723854374823,,
mp-757501,BaMnO3,30,Ba1 Mn1 O3,5.691210412926361,5.691210503932354,14.053766150000001,90.00000120026512,89.9999992049279,120.00005113107431,hex_,P-6m2,17.9999985,-7.669705201666669,-2.484730552252875,0.005214321999998,False,6.072328580617819,0.0,False,394.21434393129783,,
mp-19322,BaMoO3,5,Ba1 Mo1 O3,4.04839936,4.04839936,4.04839936,90.0,90.0,90.0,cubic,Pm-3m,3.399999999999998e-06,-8.038497707999998,-2.5167960949999992,0.0,True,7.039066312677537,0.0,False,66.35139263198728,,
mp-569812,BaN3Cl,10,Ba1 N3 Cl1,4.54043195,5.627126612904617,7.8623473870747365,101.65931737020887,90.0,90.0,mono,P2_1/m,0.0,-6.785447807,-1.02897884,0.087003804500001,False,3.626036888536963,4.078699999999999,False,196.73487530542016,,
mp-3020,BaNbO3,5,Ba1 Nb1 O3,4.13357283,4.13357283,4.13357283,90.0,90.0,90.0,cubic,Pm-3m,8e-07,-8.551587160000029,-3.178754561000029,0.0,True,6.541520966089961,0.0,False,70.62797941745364,"{'voigt': 167.842, 'reuss': 167.842, 'vrh': 167.842}","{'voigt': 90.754, 'reuss': 87.959, 'vrh': 89.357}"
mp-35143,BaNbS3,10,Ba1 Nb1 S3,6.95265609,6.952655179573802,5.73582701,90.0,90.0,119.99998910995363,hex_,P6_3/mmc,3e-06,-6.633025909,-1.745954172499999,0.0030931841538340004,False,4.514803365910806,0.0,False,240.11990490203718,,
mp-754307,BaNdO3,10,Ba1 Nd1 O3,6.373497551636307,6.373497551636307,6.37349757690995,61.042801525484734,61.042801525484734,61.04279165343977,trig,R-3c,1.9999153,-7.300780508,-2.994579430499999,0.11587030125000002,False,5.841499662797266,0.0,False,187.3694230114581,,
mp-755877,BaNdO3,5,Ba1 Nd1 O3,4.556776,4.556776,4.556776,90.0,90.0,90.0,cubic,Pm-3m,0.999945699999999,-7.238127457999999,-2.9319263804999993,0.17852335125000002,False,5.783890188613706,0.0,False,94.61784245961687,,
mp-1096852,BaNiCl3,10,Ba1 Ni1 Cl3,6.942746512667304,6.942746512667304,5.490496999999999,90.0,90.0,120.00000488535703,hex_,P6_3mc,1.9995761,-4.450619522999999,-1.801675202999999,0.290261046000002,False,4.38153623091933,0.0,False,229.1948669016096,,
mp-1120765,BaNiO3,5,Ba1 Ni1 O3,4.030684,4.030684,4.030684,90.0,90.0,90.0,cubic,Pm-3m,0.0269529,-6.204349126,-1.695750199,0.12427227400000002,False,6.187792965000027,0.0,False,65.48415898349904,,
mp-19138,BaNiO3,10,Ba1 Ni1 O3,5.67658447,5.676584231962985,4.78201573,90.0,90.0,120.0000014454112,hex_,P6_3/mmc,0.0,-6.328621400000001,-1.8200224730000012,0.0,True,6.072761251153483,1.469199999999999,False,133.449151553611,,
mp-19241,BaNiO3,10,Ba1 Ni1 O3,5.67753215,5.677530777794099,4.7833106999999995,90.0,90.0,119.99999594996375,hex_,P6_3mc,0.0,-6.328540503000001,-1.8199415760000002,8.089700000013522e-05,False,6.06909148531972,1.5157,False,133.5298435547286,,
mp-11879,BaNiSn3,5,Ba1 Ni1 Sn3,6.481813811175039,6.481813811175039,6.481813811175039,136.17424325713674,136.17424325713674,63.71106718379303,tet,I4mm,0.0,-4.420895049999999,-0.47532961299999804,0.0,True,7.115072161549863,0.0,False,128.8626860024842,"{'voigt': 46.969, 'reuss': 46.022, 'vrh': 46.496}","{'voigt': 31.848, 'reuss': 31.599, 'vrh': 31.724}"
mp-8558,BaNpO3,5,Ba1 Np1 O3,4.40770786,4.40768834,4.40770786,90.0,90.0,90.0,cubic,Pm-3m,3.0000002,-9.319061190000003,-3.376933662750002,0.0,True,8.18954193461837,0.0,False,85.63207796094373,,
mp-781625,BaOsO3,5,Ba1 Os1 O3,4.06423,4.06423,4.06423,90.0,90.0,90.0,cubic,Pm-3m,1.0745095,-7.637092357999999,-2.039047280999999,0.08043483299999901,False,9.289408158973453,0.0,False,67.13281089520898,,
mp-11006,BaPS3,20,Ba1 P1 S3,7.83000695,6.8054289066584985,11.99680662060696,56.64821982698346,90.0,90.0,mono,P2_1/c,0.0,-5.423391564500001,-1.473486130928571,0.0,True,3.290003628641807,3.1164,True,533.9879165208706,,