mp_id,formula,sites,composition,a_edge (angstrom),b_edge (angstrom),c_edge (angstrom),alpha_ang (deg),beta_ang (deg),gamma_ang (deg),crystal_system,space_group,total_magnetisation (bohr),energy_per_atom (eV/atom),formation_energy (eV/atom),energy_above_hull (eV/atom),stable,density (g/cc),band_gap (eV),direct_bandgap,volume (cubic-angstrom),bulk_modulus (GPa),shear_modulus (GPa)
mp-625654,TeHO3,40,Te1 H1 O3,4.975523,8.42996,11.713092,90.0,90.0,90.0,ortho,Pna2_1,0.0015446,-5.628324485,-1.351853415583333,0.032190362999999,False,4.775392537284972,2.1525,True,491.28760424484193,,
mp-625657,TeHO3,40,Te1 H1 O3,8.271378,4.911386,12.066110569526868,87.67387459483795,90.0,90.0,mono,Pc,7e-06,-5.633659365,-1.357188295583333,0.026855483000000003,False,4.7902000991629965,2.2213,False,489.7689262253093,,
mp-625856,TeHO3,40,Te1 H1 O3,11.523334,4.989845,9.731615153068324,59.227098894311425,90.0,90.0,mono,Pc,2.899999999999999e-06,-5.61758925225,-1.341118182833333,0.042925595749999004,False,4.879771463174074,2.0582,False,480.7789005441258,,
mp-625913,TeHO3,40,Te1 H1 O3,8.348498,4.959516,11.715244907065664,88.80759974369828,90.0,90.0,mono,Pc,1.3100000000000002e-05,-5.627206560749999,-1.350735491333333,0.033308287250000006,False,4.837711032362134,2.1809,False,484.9589285670693,,
mp-543039,TePbO3,60,Te1 Pb1 O3,4.60105577,13.510098580530931,18.023313466245707,106.7912857314357,90.0,99.80422101261475,mono,C2/c,4.7e-06,-5.8908579655,-1.550890769833333,0.0,True,7.226923609629018,3.2104,True,1055.4721207412183,,
mp-555021,TePbO3,20,Te1 Pb1 O3,5.350307890000075,5.350307890000075,11.96787127,90.0,90.0,90.0,tet,P4_1,0.0,-5.888139745000001,-1.5481725493333331,0.002718220499999,False,7.42171917065387,2.6752000000000002,False,342.58982379046694,,
mp-979272,TePdO3,5,Te1 Pd1 O3,4.065242,4.065242,4.065242,90.0,90.0,90.0,cubic,Pm-3m,0.9682637,-5.225936404,-0.592522260333333,0.6204443040000011,False,6.970549607483635,0.0,False,67.18297192655213,"{'voigt': 120.533, 'reuss': 120.533, 'vrh': 120.533}","{'voigt': 13.523, 'reuss': -23.377, 'vrh': -4.927}"
mp-1217353,Th3SiGe,10,Th3 Si1 Ge1,4.16280002,7.92418483310239,7.92418483310239,89.6754447668899,90.0,90.0,ortho,Cmmm,7e-07,-49.334528024,-0.720222298999999,0.000882776999993,False,10.124236258286334,0.0,False,261.38928106780656,,
mp-1187416,ThBO3,5,Th1 B1 O3,3.682134,3.682134,3.682134,90.0,90.0,90.0,cubic,Pm-3m,0.0006973999999990001,-8.176784634,-2.389358026833333,1.189993245156255,False,9.674205454494647,0.0,False,49.922780730192386,,
mp-1206772,ThBRh3,5,Th1 B1 Rh3,4.25609694,4.25609694,4.25609694,90.0,90.0,90.0,cubic,Pm-3m,9e-07,-31.572554684,-0.9264942364999961,0.0,True,11.879870448691872,0.0,False,77.09647711452597,,
mp-1187421,ThBeO3,5,Th1 Be1 O3,3.659297,3.659297,3.659297,90.0,90.0,90.0,cubic,Pm-3m,1.5700000000000002e-05,-8.658321612,-3.458890785999999,0.40292563899999906,False,9.79550321371273,2.696799999999999,False,48.99965010566739,,
mp-1068664,ThCoSi3,5,Th1 Co1 Si3,5.561044039850798,5.561044039850798,5.561044039850798,136.1095471089116,136.1095471089116,63.811019095778015,tet,I4mm,0.0,-23.244451689999998,-0.6382942770000001,0.0,True,7.639325964359275,0.0,False,81.56221490705461,,
mp-1189441,ThCrS3,20,Th1 Cr1 S3,6.26398333,7.45661935,8.93150794,90.0,90.0,90.0,ortho,Pnma,15.9999965,-7.598655057999997,-1.702258173499995,0.019837774666671002,False,6.053926632468872,0.015799999999999002,False,417.17411707912595,,
mp-1208150,ThCrSb3,20,Th1 Cr1 Sb3,6.199992,6.315171,12.955849,90.0,90.0,90.0,ortho,Pbcm,10.6178162,-33.671517192,-0.538006846000001,0.029786435500007,False,8.502014497377205,0.0,False,507.27343714089477,,
mp-1188731,ThCrSe3,20,Th1 Cr1 Se3,6.518927,7.753569,9.376909,90.0,90.0,90.0,ortho,Pnma,16.0000001,-6.9812120895,-1.470284058906248,0.026841786333317002,False,7.300250733821811,0.054999999999999,False,473.9553993769641,,
mp-1187487,ThCuO3,5,Th1 Cu1 O3,3.868279,3.868279,3.868279,90.0,90.0,90.0,cubic,Pm-3m,0.00022459999999900002,-7.738799444,-2.467409856999999,0.530382224000002,False,9.856584723388869,0.0,False,57.88331164717667,,
mp-11778,ThMnSe3,10,Th1 Mn1 Se3,4.05246582,6.713776663146369,9.3467944,90.0,90.0,107.56588749871835,ortho,Cmcm,9.9968154,-27.835087135,-1.616431631334045,0.0,True,7.175967160456617,0.0,False,242.44356424118857,,
mp-1187460,ThMoO3,5,Th1 Mo1 O3,4.109289,4.109289,4.109289,90.0,90.0,90.0,cubic,Pm-3m,2.3568923,-8.899091794,-2.278413519,0.948727141500002,False,8.997243288505276,0.0,False,69.39050638341453,,
mp-1187442,ThPdO3,5,Th1 Pd1 O3,4.045796,4.045796,4.045796,90.0,90.0,90.0,cubic,Pm-3m,0.0082782,-7.490239,-2.002714384999998,0.933890281000002,False,9.690306236938596,0.0,False,66.22347133013452,,
mp-1187556,ThReO3,5,Th1 Re1 O3,4.001598,4.001598,4.001598,90.0,90.0,90.0,cubic,Pm-3m,0.010163,-9.032555872,-2.091384777499999,1.098486394333335,False,12.082624872040318,0.0,False,64.07673464732868,,
mp-22394,ThRu3C,5,Th1 Ru3 C1,4.21281975,4.21281975,4.21281975,90.0,90.0,90.0,cubic,Pm-3m,5.22e-05,-9.182912181999995,-0.28976590949999603,0.0,True,12.154110661601395,0.0,False,74.76849403634931,,
mp-1068869,ThSi3Ir,5,Th1 Si3 Ir1,5.717121973850432,5.717121973850432,5.717121973850432,136.12387340355752,136.12387340355752,63.78888305920434,tet,I4mm,1e-07,-31.293103266000003,-0.861921389000002,0.0,True,9.532677268362104,0.0,False,88.57986979168912,,
mp-1070572,ThSi3Os,5,Th1 Si3 Os1,5.810960072081871,5.810960072081871,5.810960072081871,137.1887307787576,137.1887307787576,62.147795197462194,tet,I4mm,0.0,-31.25968775,-0.703330792999997,0.0,True,9.393057979067551,0.0,False,89.5452601215469,,
mp-1070238,ThSi3Rh,5,Th1 Si3 Rh1,5.688169811831193,5.688169811831193,5.688169811831193,135.93662979261285,135.93662979261285,64.07832176794577,tet,I4mm,0.0,-25.61707851,-0.8305215969999971,0.0,True,7.927187976431762,0.0,False,87.81147595094573,,
mp-1068732,ThSi3Ru,5,Th1 Si3 Ru1,5.785703975393872,5.785703975393872,5.785703975393872,137.13008712363472,137.13008712363472,62.23795768769944,tet,I4mm,0.0,-25.79152906,-0.7473108139999991,0.0,True,7.82474397186301,0.0,False,88.57160814289362,,
mp-1187425,ThSiO3,5,Th1 Si1 O3,3.884033,3.884033,3.884033,90.0,90.0,90.0,cubic,Pm-3m,0.0331334,-8.034501764,-2.497889904999998,1.108246121500002,False,8.7321810952055,0.0,False,58.593404576833066,,
mp-10732,ThTaN3,5,Th1 Ta1 N3,4.064437,4.064437,4.064437,90.0,90.0,90.0,cubic,Pm-3m,0.000214,-31.398243684499995,-1.507574309216659,0.231308497500002,False,11.252915831470542,0.0766,True,67.1430690742335,,
mp-1079374,ThTaN3,10,Th1 Ta1 N3,5.52298784754457,5.52298784754457,7.685094,90.0,90.0,145.9409682599515,ortho,Cmcm,2e-07,-31.4970431695,-1.606373794216665,0.132509012499998,False,11.509980946617048,0.0,False,131.28697753075446,,
mp-1105961,ThTaN3,20,Th1 Ta1 N3,5.67700396,5.74887351,8.05416669,90.0,90.0,90.0,ortho,Pnma,0.0,-31.629552181999998,-1.7388828067166622,0.0,True,11.497507105789076,0.34949999999999903,True,262.8588260070863,,
mp-1187536,ThTaN3,10,Th1 Ta1 N3,5.708718127881688,5.708718127881688,5.708718127881688,119.94322946656598,119.21222067322866,90.73412209878421,ortho,Imma,2.04e-05,-31.6065164245,-1.715847049216665,0.023035757499997003,False,11.415439615334432,0.40130000000000005,False,132.37428087202528,,
mp-1187448,ThWO3,5,Th1 W1 O3,4.135015,4.135015,4.135015,90.0,90.0,90.0,cubic,Pm-3m,2.5148761,-9.136233774,-2.093059474999999,1.138614586500001,False,10.894817920811578,0.0,False,70.70192979791614,,
mp-3271,Ti3AlC,5,Ti3 Al1 C1,4.16993733,4.16993733,4.16993733,90.0,90.0,90.0,cubic,Pm-3m,1.3900000000000002e-05,-7.9242064619999955,-0.5920629874999941,0.0,True,4.181626170151405,0.0,False,72.50844376204412,"{'voigt': 153.159, 'reuss': 153.159, 'vrh': 153.159}","{'voigt': 105.065, 'reuss': 101.32, 'vrh': 103.192}"
mp-10675,Ti3AlN,5,Ti3 Al1 N1,4.11698988,4.11703682,4.11699906,90.0,90.0,90.0,cubic,Pm-3m,7.99e-05,-11.961297484000001,-1.026473475749999,0.029710624666661002,False,4.392483689711716,0.0,False,69.78230623535126,"{'voigt': 162.649, 'reuss': 162.649, 'vrh': 162.649}","{'voigt': 43.918, 'reuss': 37.81, 'vrh': 40.864}"
mp-1217183,Ti3CuSn,5,Ti3 Cu1 Sn1,4.703768108676808,4.704005,5.076873,90.0,90.0,59.99832699066387,hex_,P-6m2,0.1336254,-14.711678002200003,0.169572161799996,0.451904497800008,False,5.562152153758446,0.0,False,97.28217849262651,,
mp-20325,Ti3InC,5,Ti3 In1 C1,4.23556108,4.23556108,4.23556108,90.0,90.0,90.0,cubic,Pm-3m,8.510000000000002e-05,-7.677729004,-0.542865946833333,0.0,True,5.909770786937015,0.0,False,75.98587116297644,,
mp-21233,Ti3InN,5,Ti3 In1 N1,4.18788422,4.18788422,4.18788422,90.0,90.0,90.0,cubic,Pm-3m,0.002085999999999,-7.8870283279999995,-0.930242820333333,0.006211866000000001,False,6.159042111206815,0.0,False,73.44868072467402,,
mp-760414,Ti3PdO,10,Ti3 Pd1 O1,5.676575203635135,5.8536151690682905,5.6766130230035765,61.007454472684614,89.98503713034327,118.99216313965407,tet,I4/mcm,2.7472108,-8.217818204000002,-1.454954431000001,0.0,True,6.433494068897923,0.0,False,137.3242166641896,"{'voigt': 171.264, 'reuss': 170.705, 'vrh': 170.984}","{'voigt': 49.017, 'reuss': 41.394, 'vrh': 45.205}"
mp-7159,La3TlC,5,La3 Tl1 C1,5.24077264,5.24077264,5.24077264,90.0,90.0,90.0,cubic,Pm-3m,4.7e-06,-5.571156511999999,-0.28952472716666805,0.0,True,7.303694422045193,0.0,False,143.94147790506207,"{'voigt': 54.494, 'reuss': 54.494, 'vrh': 54.494}","{'voigt': 36.211, 'reuss': 36.101, 'vrh': 36.156}"
mp-1076000,LaAgO3,5,La1 Ag1 O3,4.108444,4.108444,4.108444,90.0,90.0,90.0,cubic,Pm-3m,0.073561599999999,-6.410640516000001,-1.886074956333334,0.239231050083331,False,7.058347222618607,0.0,False,69.34770852603963,,
mp-768308,LaAgO3,10,La1 Ag1 O3,5.7310809977640345,5.7310809977640345,5.7310806052755,62.319579346963074,62.319579346963074,62.31958708067758,trig,R3c,9.62e-05,-6.613159625,-2.088594065333333,0.036711941083332006,False,6.992830903921755,0.0,False,139.99486405290418,,
mp-1069603,LaAl3Au,5,La1 Al3 Au1,6.272133771534094,6.272133771534094,6.272133771534094,139.29428745876768,139.29428745876768,58.92640679132221,tet,I4mm,3e-07,-4.549908770000002,-0.6605854510000011,0.0,True,6.658445000751,0.0,False,103.94924623194463,,
mp-1070573,LaAl3Cu,5,La1 Al3 Cu1,6.132876206765784,6.132876206765784,6.132876206765784,139.1565836085073,139.1565836085073,59.13617398379508,tet,I4mm,1.77e-05,-12.677431786,-0.5198575469999991,0.0,True,4.816332684604213,0.0,False,97.70717735024915,,
mp-1080060,LaAlO3,10,La1 Al1 O3,5.35528910525926,5.35528910525926,5.35528910525926,90.19529289283085,119.7749816068099,119.99976855008786,ortho,Imma,2.09e-05,-8.427559752999999,-3.722466562999999,0.0,True,6.529684685682409,3.7121,False,108.7846540054093,,
mp-1080080,LaAlO3,10,La1 Al1 O3,5.360968296504477,5.360968296504477,5.360968296504477,120.16865660904942,120.16865660904942,89.70812557330231,tet,I4/mcm,0.0,-8.427160754,-3.722067564000001,0.00039899899999700005,False,6.536718281427916,3.519299999999999,False,108.66760027192305,,
mp-1182592,LaAlO3,5,La1 Al1 O3,4.731420223325761,6.398442000287883,4.761754570922571,89.32638110752723,119.78947950656199,91.3559621679754,hex_,P6/mmm,0.510968499999999,-5.52231379,-0.8172206000000001,2.905245962999998,False,2.839688462711673,0.0,False,125.07172857582998,,
mp-2920,LaAlO3,10,La1 Al1 O3,5.35090684993594,5.350907328927806,5.350905874197635,60.147027033192344,60.147017966459885,60.14701406281719,trig,R-3c,0.0,-8.427286556,-3.722193366,0.000273196999998,False,6.535048660257443,4.0189,False,108.69536345095825,,
mp-5304,LaAlO3,5,La1 Al1 O3,3.7829488,3.7829488,3.7829488,90.0,90.0,90.0,cubic,Pm-3m,0.0,-8.424506328,-3.719413138,0.003053424999999,False,6.560522946797748,3.4924,False,54.13665153348018,"{'voigt': 194.911, 'reuss': 194.911, 'vrh': 194.911}","{'voigt': 132.035, 'reuss': 127.346, 'vrh': 129.69}"
mp-696871,LaAlO3,10,La1 Al1 O3,3.79585,5.856904212390451,6.1960327188158875,107.34941884341575,94.2596934320908,107.05926868756679,tri,P1,5.25e-05,-8.199224974,-3.4941317840000012,0.22833477899999902,False,5.742031104167994,3.581899999999999,False,123.70700827112734,,
mp-768417,LaAlO3,30,La1 Al1 O3,7.352805,7.925999501408639,8.318543282314819,103.82212118884878,96.34129758809003,89.67373901659747,tri,P-1,0.0019876,-8.396395141666668,-3.6913019516666683,0.031164611333331003,False,4.555686889341703,4.4431,False,467.7644710119816,,
mp-768518,LaAlO3,30,La1 Al1 O3,7.091014975693546,7.091014975693546,10.17005618,90.0,90.0,120.05924920128037,ortho,Cmcm,0.0,-8.374345489333331,-3.669252299333332,0.053214263666667004,False,4.814707508494951,4.6067,False,442.599776648795,,
mp-771698,LaAlO3,40,La1 Al1 O3,6.053921,7.664067,13.574400733040742,64.7365404078271,90.0,90.0,mono,P2_1/c,0.0029857,-8.37044092625,-3.6653477362499993,0.057118826749999005,False,4.988433941703543,4.4777000000000005,False,569.581153201603,,
mp-771703,LaAlO3,30,La1 Al1 O3,6.851714,6.858873336122923,9.854535490232301,109.8104682224224,86.91555563517672,101.58085603347166,tri,P-1,0.0001536,-8.384799595333334,-3.679706405333334,0.042760157666664,False,4.99310972184221,4.1704,True,426.7858281918373,,
mp-780411,LaAlO3,60,La1 Al1 O3,8.926582,8.801588,10.761726066820554,79.35831772276698,90.0,90.0,mono,P2_1/c,0.0005082,-8.334391190333333,-3.629298000333334,0.09316856266666501,False,5.128817203013931,4.468500000000001,False,830.9863204470903,,
mp-780421,LaAlO3,30,La1 Al1 O3,6.819106,7.900936353404259,8.054993228146254,102.70463512652826,92.71731022158495,93.24450080955593,tri,P-1,9.740000000000002e-05,-8.34491938,-3.639826190000001,0.082640372999998,False,5.051188230492036,4.269299999999999,False,421.87864927012674,,
mp-780422,LaAlO3,60,La1 Al1 O3,7.938888,7.367605,16.247747687623967,82.78194947618438,90.0,90.0,mono,P2_1/c,0.0017025,-8.391749496666668,-3.6866563066666673,0.035810256333331,False,4.520509029965628,4.2491,False,942.8090747140237,,
mp-1079050,LaAsO3,10,La1 As1 O3,5.32325283,4.434399640111638,6.2223332672317175,74.46331550266379,90.0,90.0,mono,P2_1/m,0.0,-7.753694633,-2.863692102500001,0.0,True,6.144579313856287,2.692999999999999,False,141.51370411239242,,
mp-28853,LaAuO3,20,La1 Au1 O3,4.03934509,5.70785039,13.10108913,90.0,90.0,90.0,ortho,Pbcm,0.0,-6.925627539500001,-2.314873115500002,0.0,True,8.441168934491103,1.797699999999999,False,302.0584155163614,,
mp-7492,LaBO3,10,La1 B1 O3,4.179424058117819,5.08865142,6.314355324841071,90.0,107.68584388147762,90.0,mono,P2_1/m,0.0,-8.798787131000003,-3.506930752833335,0.014214797000001,False,5.132122265944872,4.002199999999999,False,127.94431487087009,,
mp-8216,LaBO3,20,La1 B1 O3,5.12056909,5.8479603000000004,8.25010439,90.0,90.0,90.0,ortho,Pnma,0.0,-8.813001928000002,-3.521145549833336,0.0,True,5.315766467693733,4.500700000000001,False,247.04842514826802,,
mp-3846,LaBPd3,5,La1 B1 Pd3,4.417416,4.417416,4.417416,90.0,90.0,90.0,cubic,Pm-3m,0.0031814,-21.772110589533327,-0.5776115430333241,0.144084255199999,False,9.034315460999029,0.0,False,86.19953034770906,,
mp-1018633,LaBPt3,5,La1 B1 Pt3,4.43091,4.43091,4.43091,90.0,90.0,90.0,cubic,Pm-3m,0.0002251,-39.094107679999944,-0.7832506594999471,0.16968911549999102,False,14.029397467652423,0.0,False,86.99189398320256,"{'voigt': 155.423, 'reuss': 155.423, 'vrh': 155.423}","{'voigt': -10.31, 'reuss': -286.821, 'vrh': -148.566}"
mp-3088,LaBRh3,5,La1 B1 Rh3,4.26187973,4.26187973,4.26187973,90.0,90.0,90.0,cubic,Pm-3m,0.6599832,-7.439526698,-0.6978622008333331,0.0,True,9.83380001858662,0.0,False,77.41115892774451,"{'voigt': 165.301, 'reuss': 165.301, 'vrh': 165.301}","{'voigt': 65.928, 'reuss': 59.894, 'vrh': 62.911}"
mp-1222880,LaBeAl3,5,La1 Be1 Al3,6.178596263949119,6.178596263949119,6.178596263949119,139.59346190330385,139.59346190330385,58.471091969405194,tet,I-4m2,2.7e-06,-4.23447389,-0.252044398,0.110200626038464,False,3.870310031251301,0.0,False,98.19232399573505,,
mp-981934,LaBeO3,5,La1 Be1 O3,3.707597,3.707597,3.707597,90.0,90.0,90.0,cubic,Pm-3m,0.9987436999999991,-7.623507152,-2.919646555000001,0.25946022575,False,6.383239042690798,0.0,False,50.965649858396255,,
mp-755003,LaBiO3,10,La1 Bi1 O3,6.2980587240937185,6.2980587240937185,6.298058326132667,60.02589617308008,60.02589617308008,60.025898771601966,trig,R-3,0.0001158,-7.462360249,-2.728375363,0.040650489599999,False,7.438530497077172,2.6285,False,176.75022353888693,,
mp-768310,LaBiO3,10,La1 Bi1 O3,6.27184035957206,6.27184035957206,6.271839422069413,59.997590318520196,59.997590318520196,59.9975911287391,trig,R3c,1.6600000000000004e-05,-7.467816277999999,-2.733831392,0.035194460599999006,False,7.537041755290872,3.069999999999999,False,174.44004834340714,,
mp-973869,LaCdO3,5,La1 Cd1 O3,4.180291,4.180291,4.180291,90.0,90.0,90.0,cubic,Pm-3m,0.0014118,-6.213028832,-2.065048769999999,0.411376228749999,False,6.803894253349305,0.0,False,73.04988646712441,"{'voigt': 130.971, 'reuss': 130.971, 'vrh': 130.971}","{'voigt': 51.725, 'reuss': 36.871, 'vrh': 44.298}"
mp-19973,LaCoGe3,5,La1 Co1 Ge3,4.338815589588632,4.338814936452057,5.797683737344884,111.97397123426745,111.97397482523188,89.99999928020362,tet,I4mm,1e-07,-17.503298726,-0.5843099109999991,0.0,True,7.454803187751436,0.0,False,92.60921960277798,"{'voigt': 86.376, 'reuss': 86.368, 'vrh': 86.372}","{'voigt': 55.032, 'reuss': 54.706, 'vrh': 54.869}"
mp-989643,LaCoN3,10,La1 Co1 N3,4.040095202886453,5.727433628279857,7.447385271075211,102.44374506259784,89.99999409349415,110.65235678604624,mono,C2/m,0.0,-14.714296219,-0.641243549249998,0.0,True,5.076409550800055,0.49010000000000004,False,156.9199040239598,,
mp-1180725,LaCoO3,10,La1 Co1 O3,5.427133464191342,5.3779742650081115,5.420641796162967,60.923373316239015,60.47313587248989,60.65933576678309,mono,C2/c,4.0066067,-7.943823356,-2.5611619880000003,0.038764149999999005,False,7.187006177323267,1.104,False,113.59993529183483,,
mp-1181307,LaCoO3,10,La1 Co1 O3,10.542343934523954,10.542343934523954,6.30207900044755,81.40569463054543,81.40569463054543,82.52045369262586,mono,C2/c,5.220665,-5.067580595,0.31508077299999904,2.915006911,False,1.199594537895858,0.0,False,680.5994949910478,,
mp-1185232,LaCoO3,20,La1 Co1 O3,5.467447,5.550136,7.809735,90.0,90.0,90.0,ortho,Pnma,0.0005337,-7.935100783499999,-2.552439415499999,0.0474867225,False,6.8901962709794216,0.9729999999999991,False,236.98698979728346,,
mp-1272753,LaCoO3,20,La1 Co1 O3,5.558352917783918,9.401832445381165,5.54780224513149,90.11985764579529,60.685478820588806,72.89825823321043,tri,P1,4.0067708,-7.9521576865,-2.5694963185,0.030429819500000004,False,6.864404462069578,0.673899999999999,False,237.87742729827062,,
mp-1273989,LaCoO3,20,La1 Co1 O3,5.437777619198857,8.03293510781408,5.5692404576944785,89.94873461013172,90.01827884103179,91.42050149691609,mono,P2_1/c,9.699999999999999e-06,-7.9646670505,-2.582005682500001,0.017920455499999002,False,6.7142592509470695,0.0,False,243.1968758343009,,
mp-1277476,LaCoO3,20,La1 Co1 O3,5.4983088330457575,5.590821086445711,7.792867772573971,89.72569795742517,91.7481808176993,89.55862809248279,tri,P-1,3.9777358,-7.947710977,-2.565049609,0.034876528999999004,False,6.819846823423928,0.0,False,239.43160537909029,,
mp-1288145,LaCoO3,10,La1 Co1 O3,5.475249487066228,5.468355789189654,5.441026799686343,61.183100583839014,61.09933598154562,61.05012141581743,trig,R-3,3.9987316,-7.982587506,-2.599926138,0.0,True,6.914735764099035,0.9497000000000001,False,118.07297697836468,,
mp-1504268,LaCoO3,10,La1 Co1 O3,5.516916837712347,5.516916837712347,5.46019130098177,60.7794804389213,60.7794804389213,60.58956079494032,ortho,Imma,0.0003899,-7.927442259999999,-2.544780892,0.055145246,False,6.837232356035579,0.9398000000000001,False,119.41139253008177,,
mp-19051,LaCoO3,20,La1 Co1 O3,5.361153261786198,7.620694113728844,5.441142229992054,90.03294689325979,89.7896419857646,91.17317137934528,trig,R-3c,0.0,-7.979271120999999,-2.596609753,0.0033163850000000003,False,7.346953554651772,1.0014,False,222.25359956685824,,
mp-510611,LaCoO3,5,La1 Co1 O3,4.445931,4.445931,4.445931,90.0,90.0,90.0,cubic,Pm-3m,2.6032421,-6.5523122879999995,-1.169650920000001,1.430275217999999,False,4.64523780354616,0.0,False,87.87961684788989,,