mp_id,formula,sites,composition,a_edge (angstrom),b_edge (angstrom),c_edge (angstrom),alpha_ang (deg),beta_ang (deg),gamma_ang (deg),crystal_system,space_group,total_magnetisation (bohr),energy_per_atom (eV/atom),formation_energy (eV/atom),energy_above_hull (eV/atom),stable,density (g/cc),band_gap (eV),direct_bandgap,volume (cubic-angstrom),bulk_modulus (GPa),shear_modulus (GPa)
mp-559523,RbMgF3,30,Rb1 Mg1 F3,6.906875933498734,6.906875933498734,14.358365,90.0,90.0,119.99999936299878,hex_,P6_3/mmc,0.0028227,-4.609099074666667,-2.9400108766666673,0.569254555666665,False,2.801006777464857,2.2015000000000002,True,593.1969830874103,,
mp-8402,RbMgF3,5,Rb1 Mg1 F3,4.056934,4.056934,4.056934,90.0,90.0,90.0,cubic,Pm-3m,0.0,-5.178353630333333,-3.509265432333332,0.0,True,4.147324482786284,6.9384000000000015,False,66.77191431471459,"{'voigt': 66.107, 'reuss': 66.107, 'vrh': 66.107}","{'voigt': 42.375, 'reuss': 41.505, 'vrh': 41.94}"
mp-23738,RbMgH3,30,Rb1 Mg1 H3,5.886684252606349,5.88668396904192,14.283856770000009,90.00000006591202,90.00000046675596,119.99975612640765,hex_,P6_3/mmc,0.0,-2.884899170666666,-0.325598489916666,0.0,True,2.6216685563204,2.540499999999999,False,428.6656151988668,,
mp-1186884,RbMgO3,5,Rb1 Mg1 O3,4.194742,4.194742,4.194742,90.0,90.0,90.0,cubic,Pm-3m,3.0,-4.88328735,-1.3923099295,0.40636991600000005,False,3.5494455011838273,0.0,False,73.81009484134074,,
mp-29763,RbMnBr3,10,Rb1 Mn1 Br3,7.507763480001131,7.507771221553431,6.47950108,90.0,90.0,120.00002905581502,hex_,P6_3/mmc,9.9999991,-4.542055039999999,-1.531377246086207,0.001735938666667,False,3.9912016254807323,0.0,False,316.29598840839145,,
mp-568231,RbMnBr3,30,Rb1 Mn1 Br3,12.995053353708428,12.995173301839978,6.5333506502869705,90.0006383790827,89.99892932399449,119.99494389911708,hex_,P6_3cm,29.9999999,-4.543790978666667,-1.533113184752874,0.0,True,3.963416745872707,1.2358,True,955.5399878525553,,
mp-569309,RbMnCl3,30,Rb1 Mn1 Cl3,7.155895927733768,7.155895691487847,17.799505940000046,90.00000314292706,90.0000048042208,119.99790552140686,hex_,P6_3/mmc,29.9999996,-4.961344522000001,-1.8237126530862082,0.0,True,3.114640125663711,1.3133,False,789.3611759695846,,
mp-558749,RbMnF3,5,Rb1 Mn1 F3,4.23247214,4.23247214,4.23247214,90.0,90.0,90.0,cubic,Pm-3m,5.0000009,-6.190304176,-3.014906922586206,0.0,True,4.323308649455128,2.943699999999999,False,75.81974583115912,,
mp-975346,RbMnO3,5,Rb1 Mn1 O3,4.039265,4.039265,4.039265,90.0,90.0,90.0,cubic,Pm-3m,1.994376599999999,-6.375374634,-1.378088158086207,0.37963623908333605,False,4.747142635255059,0.0,False,65.90328141912995,,
mp-975292,RbMoO3,5,Rb1 Mo1 O3,4.052919,4.052919,4.052919,90.0,90.0,90.0,cubic,Pm-3m,1.0001833,-7.286910315999999,-1.9528968765,0.19331893500000003,False,5.722029564103488,0.0,False,66.57386524218768,,
mp-1219584,RbNO3,5,Rb1 N1 O3,4.751269959706036,4.751269516244053,4.751269754817547,72.80689611192831,72.80690647945545,72.80690224677673,trig,R3m,0.0001497,-6.253632308,-1.4210933415,0.0,True,2.569493493874137,3.0415,True,95.30445599134761,,
mp-13658,RbNO3,10,Rb1 N1 O3,4.8902325,5.31012834,5.77135798,90.0,90.0,90.0,ortho,Pmmn,0.0,-6.236083325000001,-1.403544358500001,0.017548982999999,False,3.267970942912767,3.1172,False,149.86925152321862,,
mp-38220,RbNO3,10,Rb1 N1 O3,9.043921901848059,6.051993933390119,6.051993933390119,60.00000000000001,47.99633670608611,47.99633670608611,trig,R-3c,0.0,-6.230497723,-1.3979587565,0.023134585000000003,False,2.689609684859149,3.0358,True,182.09644394540166,,
mp-5073,RbNO3,45,Rb1 N1 O3,10.339676889285391,10.339676397703828,7.32885327,90.0,90.0,120.00000063323807,trig,P3_1,0.7694436,-6.236590271111111,-1.404051304611111,0.017042036888889,False,3.248049718928205,3.248199999999999,False,678.5479925443076,,
mp-614951,RbNO3,45,Rb1 N1 O3,11.660643195907033,11.660643195907033,7.391708,90.0,90.0,119.99999543778488,trig,P3_2,0.0021172,-6.214186574888888,-1.381647608388888,0.039445733111111006,False,2.5321111835356973,3.1337,False,870.4031761296334,,
mp-752446,RbNO3,5,Rb1 N1 O3,4.708980741079326,4.708980741079326,4.708980346090754,81.70017532711402,81.70017532711402,81.70017263109375,trig,R32,0.0,-6.232598406,-1.4000594395000001,0.021033902,False,2.414395970448158,2.981499999999999,False,101.42668501949434,,
mp-975274,RbNaO3,5,Rb1 Na1 O3,4.527717,4.527717,4.527717,90.0,90.0,90.0,cubic,Pm-3m,4.0000746,-3.935398672,-0.5021710987758621,0.6004236366666681,False,2.7989997391806822,0.0,False,92.81920017629031,,
mp-1075911,RbNbO3,5,Rb1 Nb1 O3,4.098856,4.098856,4.098856,90.0,90.0,90.0,cubic,Pm-3m,0.000370999999999,-7.941458901999999,-2.756314476499999,0.08273654200000101,False,5.458641230108817,1.3563,False,68.86332417595558,,
mp-3283,RbNbO3,20,Rb1 Nb1 O3,5.145686136314056,8.472444099964454,8.991564092361955,114.21007651414105,93.50123907634712,94.76049878327154,tri,P-1,0.0,-8.024195444,-2.8390510185,0.0,True,4.243448231713888,3.3093,False,354.33464490495084,"{'voigt': 43.979, 'reuss': 36.434, 'vrh': 40.207}","{'voigt': 20.541, 'reuss': 16.667, 'vrh': 18.604}"
mp-756063,RbNbO3,20,Rb1 Nb1 O3,6.526222077485029,6.526222077485029,8.332043643202308,86.59608804128175,86.59608804128175,82.93079755184696,mono,C2/m,0.0002853,-7.9998760765,-2.8147316510000002,0.0243193675,False,4.282909210134933,2.8197,False,351.06995002341193,"{'voigt': 67.347, 'reuss': 58.504, 'vrh': 62.925}","{'voigt': 24.638, 'reuss': 10.056, 'vrh': 17.347}"
mp-27409,RbNiBr3,10,Rb1 Ni1 Br3,7.356205900000072,7.356206957334365,6.23210219,90.0,90.0,120.0000033576975,hex_,P6_3/mmc,3.999999899999999,-3.600229622,-1.2659275505,0.0,True,4.365096884934357,0.47230000000000005,False,292.0606172205687,,
mp-23486,RbNiCl3,10,Rb1 Ni1 Cl3,6.97274846,6.972747066170143,5.88951826,90.0,90.0,119.99999685230323,hex_,P6_3/mmc,4.0000002,-4.012759160000002,-1.551503013500001,0.0,True,3.35508490248867,0.7089000000000001,False,247.98095497605672,,
mp-556488,RbNiF3,30,Rb1 Ni1 F3,5.832151667988473,5.832153552684405,14.273425230000095,89.99999686899947,89.99999393531662,119.99905357839025,hex_,P6_3/mmc,11.999999,-5.116213329999999,-2.617191798999999,0.0,True,4.766652435548675,4.6929,True,420.4561769345898,,
mp-975373,RbNiO3,5,Rb1 Ni1 O3,4.051925,4.051925,4.051925,90.0,90.0,90.0,cubic,Pm-3m,3.870179,-4.971713716,-0.650802962499999,0.41978733500000204,False,4.796523065031163,0.0,False,66.52489446797706,,
mp-975288,RbNpO3,5,Rb1 Np1 O3,4.3055239379562185,4.305542683540013,4.304774405814152,90.28442336773512,90.28837594976997,89.67589710604241,cubic,Pm-3m,2.0,-8.831984582,-3.077545228250001,0.01233905900001,False,7.709227977568612,0.0,False,79.7970001194663,"{'voigt': 133.382, 'reuss': 133.382, 'vrh': 133.382}","{'voigt': 73.18, 'reuss': 66.48, 'vrh': 69.83}"
mp-1040467,RbOsO3,5,Rb1 Os1 O3,3.974097,3.974097,3.974097,90.0,90.0,90.0,cubic,Pm-3m,0.0017219,-6.930602086,-1.5202451825,0.09055916899999701,False,8.563889217767022,0.0,False,62.76469020489101,"{'voigt': 197.673, 'reuss': 197.673, 'vrh': 197.673}","{'voigt': 104.985, 'reuss': 104.981, 'vrh': 104.983}"
mp-998602,RbOsO3,10,Rb1 Os1 O3,5.4696566410783145,5.483280644365285,6.927613491198519,66.78673358407897,66.84335152219467,59.91492003800622,trig,R-3,1.8154539,-7.021161254999998,-1.610804351499998,0.0,True,6.7127204624474945,0.0,False,160.14665193019954,,
mp-1179733,RbPO3,60,Rb1 P1 O3,18.857954,7.534718,9.147069010350911,84.37676580044574,90.0,90.0,mono,P2_1/c,11.999354499999999,-5.750318730999999,-1.502340608428571,1.178719973749999,False,2.53331172049646,0.0949,True,1293.4467402214239,,
mp-4135,RbPO3,20,Rb1 P1 O3,4.23479786,6.481794278827733,13.122758161187265,66.49759588647763,90.0,90.0,mono,P2_1/c,0.0,-6.929038704749999,-2.68106058217857,0.0,True,3.306534152028769,5.1118999999999994,True,330.3261195543584,,
mp-548658,RbPO3,10,Rb1 P1 O3,7.348147026610177,7.348147026610177,4.862531,90.0,90.0,131.1772254486306,ortho,Cmcm,0.0017223,-6.877258202999999,-2.62928008042857,0.05178050174999901,False,2.763499679452859,4.5235,True,197.61800656873498,"{'voigt': 27.764, 'reuss': 19.143, 'vrh': 23.454}","{'voigt': 17.122, 'reuss': 11.918, 'vrh': 14.52}"
mp-616587,RbPO3,40,Rb1 P1 O3,4.60648002,11.863289642259222,14.51769467464965,63.62141223542954,90.0,90.0,mono,P2_1/c,0.0,-6.926567784249999,-2.6785896616785703,0.0024709204999990002,False,3.073442794292052,5.0926,True,710.7564179441404,,
mp-9138,RbPO3,20,Rb1 P1 O3,4.51776972,6.09760948,12.75847234,90.0,90.0,90.0,ortho,Pnma,0.0,-6.917475896249999,-2.66949777367857,0.011562808499999001,False,3.107660409128505,4.7607,False,351.4652348774249,,
mp-556953,RbPS3,10,Rb1 P1 S3,7.024475612855325,7.257306804800502,7.257306958107366,72.93797436892028,61.05573259730897,61.055723511542034,ortho,Immm,0.0,-4.741105191999996,-0.978887931928566,0.0,True,2.500040790174273,1.8376000000000001,False,282.46844577595846,"{'voigt': 9.038, 'reuss': 8.363, 'vrh': 8.701}","{'voigt': 4.641, 'reuss': 2.13, 'vrh': 3.385}"
mp-571464,RbPSe3,30,Rb1 P1 Se3,7.474135477124354,7.473874795574754,19.366259412742753,89.99932196903585,90.00194186624884,119.99734517629838,trig,P3_121,0.0,-4.181909743666669,-0.80516133750149,0.0,True,3.757298610076806,1.122999999999999,False,936.9033196344337,,
mp-1206844,RbPaO3,5,Rb1 Pa1 O3,4.38112501,4.38112501,4.38112501,90.0,90.0,90.0,cubic,Pm-3m,0.0,-8.604355962,-3.5306131085,0.0,True,7.197670044615942,3.000999999999999,False,84.09243655756401,,
mp-998176,RbPbBr3,5,Rb1 Pb1 Br3,5.9850843629225485,5.9850843629225485,5.980424007898855,89.94260671123668,89.94260671123668,90.06771908267652,mono,Cm,0.0006075,-3.493827592,-1.573023442499999,0.039393365000003004,False,4.126661790570243,1.7508,True,214.22580793725126,,
mp-998603,RbPbBr3,10,Rb1 Pb1 Br3,4.458387340613728,7.676617824952399,11.22836159,90.0,90.0,106.84583844325151,ortho,Cmcm,0.0,-3.533220957000003,-1.612416807500002,0.0,True,4.807117123153489,2.8211,False,367.8035851927661,,
mp-1209191,RbPbCl3,5,Rb1 Pb1 Cl3,5.723076,5.723076,5.723076,90.0,90.0,90.0,cubic,Pm-3m,0.0023644,-3.8761675959999993,-1.828409371499999,0.038352820000002,False,3.534781906107159,2.1963,True,187.45133578838053,,
mp-998604,RbPbCl3,10,Rb1 Pb1 Cl3,4.276082772059242,7.340583958824088,10.693940495574585,90.00075315582032,89.99625656917718,106.81022661896408,ortho,Cmcm,0.0,-3.914520416000002,-1.8667621915000012,0.0,True,4.124138005352904,3.263,False,321.3275545873426,,
mp-998605,RbPbCl3,5,Rb1 Pb1 Cl3,5.717154663413087,5.717154663413087,5.713945627305356,89.90838682999275,89.90838682999275,90.073500489484,mono,Cm,0.0006274,-3.876387829999999,-1.828629605499999,0.038132586000002,False,3.54777971520058,2.1948,True,186.76458044490604,,
mp-1173075,RbPbF3,10,Rb1 Pb1 F3,11.095958183835455,6.840403326208477,8.16558,53.35437831191011,42.61618934526052,35.80034673217927,ortho,Ima2,0.0001728,-4.744235088,-2.658711478999999,0.12169642700000101,False,4.730691527519799,3.4164,False,245.4732396767127,,
mp-1179717,RbPbF3,20,Rb1 Pb1 F3,4.741703412365223,4.764575093879201,20.676936338207216,89.19034701920026,104.76992976596975,90.08098369158104,tri,P-1,0.0003589,-4.8500922785,-2.764568669499999,0.015839236500001002,False,5.142226455367457,4.017,True,451.6557896664936,,
mp-1540546,RbPbF3,10,Rb1 Pb1 F3,9.361063102669824,6.446879579235576,6.791094373478929,58.21800898261517,43.524213296209126,46.49083905704096,trig,R3c,0.0,-4.865931515,-2.780407905999999,0.0,True,5.681608063675272,3.8194999999999992,False,204.38899729740888,,
mp-21043,RbPbF3,5,Rb1 Pb1 F3,4.8617159999999995,4.8617159999999995,4.8617159999999995,90.0,90.0,90.0,cubic,Pm-3m,0.0001031,-4.831842524,-2.746318914999999,0.034088991000001005,False,5.052775839610082,3.044499999999999,True,114.91289263893754,,
mp-605350,RbPbF3,20,Rb1 Pb1 F3,4.6851389999999995,4.9480265559782515,17.836194393966753,90.98935837087829,95.20667923993342,89.91413781650134,tri,P-1,0.0013513,-4.8104920635,-2.724968454499999,0.05543945150000101,False,5.641083307656563,3.996,False,411.7145987173428,,
mp-674508,RbPbF3,10,Rb1 Pb1 F3,6.490867049926683,6.490867049926683,6.390391422667171,63.325261419841645,63.325261419841645,63.48656038909566,mono,Cc,0.0,-4.865671278000002,-2.780147669000001,0.000260236999999,False,5.675287896070846,3.7853,False,204.61661089923413,,
mp-23517,RbPbI3,20,Rb1 Pb1 I3,4.82902567,10.46796539,17.5311371,90.0,90.0,90.0,ortho,Pnma,0.0,-3.088990617500002,-1.235946820000001,0.0,True,5.047056938770783,2.4518,False,886.2002703632756,,
mp-1385732,RbPdBr3,5,Rb1 Pd1 Br3,5.296201,5.289077,5.292232487559953,89.95704087548238,90.0,90.0,ortho,Amm2,0.0002115,-3.435351548,-1.221100450499999,0.007196886,False,4.83445131655105,0.0,False,148.24605360759736,,
mp-998174,RbPdBr3,5,Rb1 Pd1 Br3,5.296201361774493,5.292232080930031,5.289076872322996,90.04296172995066,89.97922294772947,90.01098389401744,mono,Pm,3.38e-05,-3.435340548,-1.221089450499999,0.007207885999999001,False,4.834451881087653,0.0,False,148.24603629636422,,
mp-998173,RbPdCl3,5,Rb1 Pd1 Cl3,4.94767089,4.94767089,4.94767089,90.0,90.0,90.0,cubic,Pm-3m,0.0026901,-3.77837043,-1.437165257499999,0.043305494500001006,False,4.089050553135901,0.0,False,121.11624849162804,,
mp-9060,RbPdF3,5,Rb1 Pd1 F3,4.345685,4.345685,4.345685,90.0,90.0,90.0,cubic,Pm-3m,7.18e-05,-4.498189628,-2.119219071,0.043470064999997005,False,5.035813274523736,0.0,False,82.06816613804428,"{'voigt': 67.565, 'reuss': 67.565, 'vrh': 67.565}","{'voigt': 24.051, 'reuss': 21.599, 'vrh': 22.825}"
mp-975255,RbPdO3,5,Rb1 Pd1 O3,4.128309,4.128309,4.128309,90.0,90.0,90.0,cubic,Pm-3m,2.185399,-4.974970445999999,-0.774110666499999,0.155602799000001,False,5.661576907486393,0.0,False,70.35850277043419,"{'voigt': 95.483, 'reuss': 95.483, 'vrh': 95.483}","{'voigt': 47.696, 'reuss': 47.421, 'vrh': 47.559}"
mp-975236,RbPtO3,5,Rb1 Pt1 O3,4.105072,4.105072,4.105072,90.0,90.0,90.0,cubic,Pm-3m,1.7383094,-5.268046396,-0.8889363144999991,0.160222984,False,7.8865712781699315,0.0,False,69.17709751024132,,
mp-1186888,RbPuO3,5,Rb1 Pu1 O3,4.28283457,4.2828178900000005,4.28287974,90.0,90.0,90.0,cubic,Pm-3m,2.9999998,-8.997897899999998,-2.8854279862499963,0.022020938000004,False,7.978663495176141,0.0,False,78.55915213020248,,
mp-975216,RbReO3,5,Rb1 Re1 O3,3.984061999999999,3.984061999999999,3.984061999999999,90.0,90.0,90.0,cubic,Pm-3m,0.000248399999999,-7.627734916,-1.973228657,0.146810710426466,False,8.394151231269237,0.0,False,63.238020189559734,"{'voigt': 195.873, 'reuss': 195.873, 'vrh': 195.873}","{'voigt': 128.801, 'reuss': 124.839, 'vrh': 126.82}"
mp-1186897,RbRhO3,5,Rb1 Rh1 O3,4.042708,4.042708,4.042708,90.0,90.0,90.0,cubic,Pm-3m,2.3490745,-5.74644687,-1.108701878499999,0.115868383,False,5.940555901425838,0.0,False,66.07194957741817,,
mp-975208,RbRuO3,5,Rb1 Ru1 O3,3.978586,3.978586,3.978586,90.0,90.0,90.0,cubic,Pm-3m,0.0416099,-6.458186190000001,-1.4384222645,0.19918271774999802,False,6.184041013311599,0.0,False,62.97762089316109,"{'voigt': 155.247, 'reuss': 155.247, 'vrh': 155.247}","{'voigt': 87.334, 'reuss': 83.815, 'vrh': 85.574}"
mp-3404,RbSO3,30,Rb1 S1 O3,10.123099257135362,10.123108533225576,6.453717470997259,89.99853467561134,90.00193683295313,120.00038177104739,trig,P321,0.0,-6.069781628333333,-2.077226297333333,0.007402475854159001,False,2.879475505870826,5.0206,False,572.7515827231946,,
mp-975206,RbSbO3,5,Rb1 Sb1 O3,4.09054,4.09054,4.09054,90.0,90.0,90.0,cubic,Pm-3m,5.4000000000000005e-05,-5.789894704,-1.7992110385000002,0.096659121590908,False,6.192016145047547,0.0,False,68.44503210008946,"{'voigt': 117.294, 'reuss': 117.294, 'vrh': 117.294}","{'voigt': 106.173, 'reuss': 105.62, 'vrh': 105.897}"
mp-1206561,RbScBr3,10,Rb1 Sc1 Br3,6.1398100602527235,7.75078291455278,7.7515248065254685,120.0033702325109,89.99956560799453,90.00103865833111,hex_,P6_3/mmc,4.7e-06,-4.4186600710000015,-1.9738915145,0.013491091333330001,False,3.848013174387555,0.0,False,319.45047060169134,,
mp-1206320,RbScCl3,10,Rb1 Sc1 Cl3,7.311757676737481,7.311745027408264,5.898394080001313,90.00001325851373,89.99993036802496,120.00005087065497,hex_,P6_3/mmc,2e-07,-4.874307268,-2.3025846365,0.0,True,2.879533008843022,0.0,False,273.09077017976364,,
mp-998299,RbSeBr3,10,Rb1 Se1 Br3,5.374461232792734,7.619161672794241,8.72161199,90.0,90.0,97.06039085242442,mono,P2_1/m,0.0,-2.973246041999999,-1.095789010968749,0.050724696890625004,False,3.786845357047706,1.2364,False,354.4321792908409,,
mp-998366,RbSeBr3,5,Rb1 Se1 Br3,5.49626467,5.49626467,5.48582805,90.0,90.0,90.0,tet,P4mm,1.0092626,-2.96387529,-1.086418258968749,0.06009544889062501,False,4.049517249934058,0.0,False,165.72096989556928,,
mp-725554,RbSeO3,10,Rb1 Se1 O3,5.505499,5.771568494396736,7.390523039268804,107.56534208683736,107.9424738454147,92.66571235919591,tri,P-1,1.9994113,-5.297730111,-1.43366439796875,0.174372124499999,False,3.352023999016409,0.036800000000000006,False,210.46488441913135,,
mp-1206676,RbSmI3,10,Rb1 Sm1 I3,8.614080202801746,8.614080202801746,11.948769,90.0,90.0,151.0140073271542,ortho,Cmcm,0.8233011,-3.572161785,-1.5179301745,0.056198055999999004,False,4.7656328954120974,0.0,False,429.65574052480815,,
mp-975207,RbSmO3,5,Rb1 Sm1 O3,4.576909,4.576909,4.576909,90.0,90.0,90.0,cubic,Pm-3m,1.9999635,-6.306784188,-2.198183543500001,0.271069491125,False,4.915689480054075,0.0,False,95.87752908908864,,
mp-998157,RbSnBr3,5,Rb1 Sn1 Br3,5.877776900895096,5.876641046802041,5.967052678590076,88.9579547690568,87.43691012648453,90.26964235336203,tri,P1,0.0,-3.4591691325,-1.478980025999999,0.044643826000000005,False,3.5804307788045513,0.6010000000000001,True,205.86806440407298,,
mp-998778,RbSnBr3,20,Rb1 Sn1 Br3,4.51432928,9.33432247,16.63637103,90.0,90.0,90.0,ortho,Pnma,0.0,-3.5038129585,-1.523623852,0.0,True,4.205809743460504,2.5418000000000003,False,701.0268168324552,,
mp-998156,RbSnCl3,5,Rb1 Sn1 Cl3,5.598740999634918,5.598740999634918,5.612905748504958,89.40499047488176,89.40499047488176,90.0388011033357,mono,Cm,0.0020158,-3.86719406,-1.7600508785,0.022738519999999002,False,2.931167509622487,0.9861000000000001,True,175.92255861329596,,
mp-998611,RbSnCl3,10,Rb1 Sn1 Cl3,7.846385025692914,7.846385025692914,7.846385079878822,61.229151592883206,61.229151592883206,61.22915281535035,trig,R3c,0.0006462,-3.88993258,-1.782789398499999,0.0,True,2.938028100191553,2.3264,True,351.0235235553608,,
mp-1198796,RbSnF3,80,Rb1 Sn1 F3,13.924065,8.412632,15.308463743396493,82.11373068302635,90.0,90.0,mono,P2_1/c,0.0003782,-4.930896661625,-2.785988095624999,0.0,True,3.90656245554561,3.689899999999999,True,1776.2439096465464,,
mp-998193,RbSnF3,5,Rb1 Sn1 F3,4.609908,4.639338082918511,5.300348898437346,96.68175125296231,94.43941502725423,89.56276905598112,tri,P1,0.00015199999999900002,-4.8886997700000006,-2.743791204,0.042196891625001,False,3.8635801223796413,3.405299999999999,False,112.25028907001969,,
mp-998620,RbSnF3,10,Rb1 Sn1 F3,6.522643337868794,6.522643331581319,6.522642941883399,62.42967912542679,62.4296791631478,62.42967400285197,trig,R-3,0.0,-4.918072841,-2.773164275,0.012823820625001,False,4.1931366289622645,4.0234,True,206.8561193960559,,
mp-29405,RbSnI3,20,Rb1 Sn1 I3,4.75301072,10.40655468,17.43905401,90.0,90.0,90.0,ortho,Pnma,0.0,-3.064690358999999,-1.152261604499999,0.0,True,4.503866369000728,2.0077,False,862.5786152100532,,
mp-1186893,RbSnO3,5,Rb1 Sn1 O3,4.200596,4.200596,4.200596,90.0,90.0,90.0,cubic,Pm-3m,1.0000062,-5.616609184,-1.6498113955,0.18585081483333102,False,5.649631292418526,0.0,False,74.11954479593331,,
mp-1209047,RbSrCl3,5,Rb1 Sr1 Cl3,5.696304,5.696304,5.696304,90.0,90.0,90.0,cubic,Pm-3m,0.0005875,-4.243535842,-2.5998214135,0.041054575250001,False,2.510549347487334,4.6262,False,184.83298442262466,,
mp-1209111,RbSrCl3,10,Rb1 Sr1 Cl3,7.73440649,7.73440649,5.71582055,90.0,90.0,90.0,tet,P4/mbm,0.0,-4.275119462000001,-2.631405033500001,0.009470955250000001,False,2.7142238485179453,4.8958,True,341.9263512032979,,
mp-1209174,RbSrCl3,20,Rb1 Sr1 Cl3,7.849509981314375,7.919335924803417,11.223316,90.0,90.0,89.54065090244131,mono,P2_1/m,0.0020669,-4.2824693215,-2.638754892999999,0.002121095750001,False,2.660539336649661,5.1392,True,697.6515205683058,,