mp_id,formula,sites,composition,a_edge (angstrom),b_edge (angstrom),c_edge (angstrom),alpha_ang (deg),beta_ang (deg),gamma_ang (deg),crystal_system,space_group,total_magnetisation (bohr),energy_per_atom (eV/atom),formation_energy (eV/atom),energy_above_hull (eV/atom),stable,density (g/cc),band_gap (eV),direct_bandgap,volume (cubic-angstrom),bulk_modulus (GPa),shear_modulus (GPa)
mp-22564,PrMnO3,20,Pr1 Mn1 O3,5.4792669400000005,5.57528151,7.78248656,90.0,90.0,90.0,ortho,Pnma,15.9999997,-8.703889929000002,-2.943615975919542,0.0,True,6.81260699932876,0.057,False,237.7429455944275,,
mp-975913,PrNbO3,5,Pr1 Nb1 O3,4.086932,4.086932,4.086932,90.0,90.0,90.0,cubic,Pm-3m,0.0004079,-8.87407588,-2.9259439773333322,0.342085202350006,False,6.855145839496563,0.0,False,68.26407903161855,"{'voigt': 187.182, 'reuss': 187.182, 'vrh': 187.182}","{'voigt': 53.48, 'reuss': 15.39, 'vrh': 34.435}"
mp-13073,PrNiGe3,10,Pr1 Ni1 Ge3,4.144130269816321,4.19133551,11.08945960610727,90.0,100.76900611254047,90.0,ortho,Cmmm,1e-07,-5.481115864999998,-0.592177524333331,0.000252171000002,False,7.327874172778695,0.0,False,189.22541471258697,,
mp-19170,PrNiO3,10,Pr1 Ni1 O3,5.3250530743779825,5.325063373261904,5.325124142468528,61.617027930312915,61.6168865003975,61.6242110581429,trig,R-3c,1.9999319,-7.489484222499999,-2.405585991833332,0.0010816025,False,7.431405465962988,0.0,False,110.65153943462884,,
mp-22280,PrNiO3,20,Pr1 Ni1 O3,5.37445976,5.42801121,7.63202038,90.0,90.0,90.0,ortho,Pnma,3.9996803,-7.490565824999999,-2.406667594333332,0.0,True,7.386578893960931,0.0,False,222.64609009835596,,
mp-570394,PrNiSb3,60,Pr1 Ni1 Sb3,6.25385066,12.82277019,18.3944112,90.0,90.0,90.0,ortho,Pbcm,3e-07,-5.326100304333329,-0.733577932666661,0.0,True,7.630835534368456,0.0,False,1475.0789172939385,,
mp-1186471,PrPbO3,5,Pr1 Pb1 O3,4.537287,4.537287,4.537287,90.0,90.0,90.0,cubic,Pm-3m,1.0002077,-6.65096289,-1.980562581333332,0.585463062124998,False,7.041604055881917,0.0,False,93.4090064158571,,
mp-10708,PrRh3C,5,Pr1 Rh3 C1,4.22136644,4.22136644,4.22136644,90.0,90.0,90.0,cubic,Pm-3m,2e-07,-7.5764727239999985,-0.35306061183333104,0.022491175499999003,False,10.19033650170698,0.0,False,75.22447397106309,"{'voigt': 183.945, 'reuss': 183.945, 'vrh': 183.945}","{'voigt': 66.456, 'reuss': 66.386, 'vrh': 66.421}"
mp-4789,PrRhO3,20,Pr1 Rh1 O3,5.40540234,5.82736449,7.84373387,90.0,90.0,90.0,ortho,Pnma,0.0,-7.8720028939999995,-2.471270425333332,0.0,True,7.844914415455231,0.6013000000000001,False,247.07173136147833,"{'voigt': 179.391, 'reuss': 176.979, 'vrh': 178.185}","{'voigt': 66.939, 'reuss': 56.134, 'vrh': 61.536}"
mp-20186,PrRuO3,20,Pr1 Ru1 O3,5.380915,5.986599,7.8522929999999995,90.0,90.0,90.0,ortho,Pnma,3.9944489,-8.263661768,-2.480910365333333,0.075639104300007,False,7.614442683349157,0.0,False,252.94890109212832,,
mp-559756,PrScO3,20,Pr1 Sc1 O3,5.6176864,5.82086436,8.06007464,90.0,90.0,90.0,ortho,Pnma,0.0,-9.072905108499999,-3.8785403928333313,0.0,True,5.893649056518227,4.2605,True,263.56275255678537,,
mp-1189962,PrScS3,20,Pr1 Sc1 S3,6.52742262,7.18798791,9.61925523,90.0,90.0,90.0,ortho,Pnma,0.0,-15.276447830999999,-2.29495963702083,0.0,True,4.151048981637531,1.8377,True,451.3261716177129,,
mp-1202224,PrSiAs3,40,Pr1 Si1 As3,6.023156,26.683435,5.952776,90.0,90.0,90.0,ortho,Pna2_1,0.0021115,-5.445190961250001,-0.5989595440833341,0.030635546749998,False,5.467427481684265,0.0,False,956.7211796768564,,
mp-1200190,PrSiP3,40,Pr1 Si1 P3,5.7318266,5.89937356,25.49814329,90.0,90.0,90.0,ortho,Pna2_1,0.0,-5.9729421170000006,-0.679500104119046,0.0,True,4.035441187405879,0.25680000000000003,False,862.1989673730549,,
mp-1198507,PrSn3Ru,40,Pr1 Sn3 Ru1,9.783055440009738,9.782991140013905,9.782873380013028,90.0001519230673,90.00010905162729,89.99988064132539,cubic,Pm-3n,2.7000000000000002e-05,-5.69832339075,-0.47860547808333104,0.0,True,8.48605484652777,0.0,False,936.2947912255819,,
mp-1206304,PrTiGe3,10,Pr1 Ti1 Ge3,5.905038970000026,6.270529643256385,6.2705283169355095,119.99933930511952,89.9999991253228,89.9999997355567,hex_,P6_3/mmc,5e-07,-17.508391901,-0.716862676666664,0.0,True,6.717116841554281,0.0,False,201.07804298546273,,
mp-753948,PrTiO3,10,Pr1 Ti1 O3,5.536977619545252,5.536977619545252,5.536977442088237,61.66746208210087,61.66746208210087,61.66745346244225,trig,R-3c,1.9880035,-9.03430902,-3.527339722,0.05882947999999601,False,6.314912054071364,0.0,False,124.52131208438156,,
mp-754696,PrTiO3,5,Pr1 Ti1 O3,3.943235999999999,3.943235999999999,3.943235999999999,90.0,90.0,90.0,cubic,Pm-3m,0.00019109999999900002,-8.988493486,-3.481524188,0.10464501399999701,False,6.412430763114484,0.0,False,61.31381091813314,"{'voigt': 187.179, 'reuss': 187.179, 'vrh': 187.179}","{'voigt': 72.213, 'reuss': 65.478, 'vrh': 68.846}"
mp-754046,PrTlO3,5,Pr1 Tl1 O3,4.645081,4.645081,4.645081,90.0,90.0,90.0,cubic,Pm-3m,1.9856338,-6.16928629,-1.7671209720000012,0.647732866374997,False,6.516001688581736,0.0,False,100.2258791905031,,
mp-1201800,PrTmS3,40,Pr1 Tm1 S3,3.95716548,11.01907461105017,21.482600670035353,78.57751572093024,90.0,90.0,mono,P2_1/m,0.0,-20.11143266,-2.385432279020833,0.0,True,5.874575919442772,0.648099999999999,True,918.1804137086366,,
mp-978084,PrVGe3,10,Pr1 V1 Ge3,6.234303930273814,6.2342081400369,5.773591750000001,90.0000005093542,90.00000219447045,119.99943031845824,hex_,P6_3/mmc,0.0001828,-6.052461930000001,-0.502769711333334,0.013583788727268,False,7.002770391290841,0.0,False,194.3338547009102,,
mp-1069346,PrVO3,5,Pr1 V1 O3,3.935905,3.935905,3.935905,90.0,90.0,90.0,cubic,Pm-3m,1.9992671,-8.735173972000002,-2.990521863333335,0.212041934499998,False,6.532060516745839,0.0,False,60.972474715206346,,
mp-1209329,PrVO3,20,Pr1 V1 O3,5.48384877,5.49925769,7.94591615,90.0,90.0,90.0,ortho,Pnma,8.0000009,-8.9472159065,-3.2025637978333332,0.0,True,6.648298263782472,1.301599999999999,True,239.62576821509148,,
mp-1173419,PrVSb3,20,Pr1 V1 Sb3,9.40205,8.991986,7.689995,90.0,90.0,90.0,ortho,Pbcm,13.8525585,-24.092194720499997,0.030301137166671002,0.694379732000001,False,5.691945525075186,0.0,False,650.1360314437871,,
mp-1173554,PrVSb3,20,Pr1 V1 Sb3,6.589296,7.931818,10.514568,90.0,90.0,90.0,ortho,Pbcm,9.7173869,-24.541030368999994,-0.41853451133332803,0.245544083500004,False,6.73382428097358,0.0,False,549.5449124389061,,
mp-1209337,PrVSb3,20,Pr1 V1 Sb3,6.27206377,6.20187894,13.24995256,90.0,90.0,90.0,ortho,Pbcm,7.315204299999999,-24.7865744525,-0.6640785948333331,0.0,True,7.179875237022507,0.0,False,515.4043423742302,,
mp-20097,Pt3PbC,5,Pt3 Pb1 C1,4.348043,4.348043,4.348043,90.0,90.0,90.0,cubic,Pm-3m,0.0003071,-5.840397596,0.390544908500001,0.48260284750000104,False,16.250754090700863,0.0,False,82.2018309745344,,
mp-975564,PuBO3,5,Pu1 B1 O3,3.562941,3.562941,3.562941,90.0,90.0,90.0,cubic,Pm-3m,4.9661100000000005,-9.517090566,-2.26484911258333,0.7867055536666671,False,11.117119422654332,0.0,False,45.229927574695196,,
mp-1209736,PuCrO3,20,Pu1 Cr1 O3,5.472803,5.61466,7.816719,90.0,90.0,90.0,ortho,Pnma,8.0000001,-10.649661856,-2.802689262749997,0.082013570666672,False,9.51267276546756,0.0,False,240.1915793472138,,
mp-2647102,PuCuO3,5,Pu1 Cu1 O3,3.821683,3.823684,3.823684,90.0,90.0,90.0,cubic,Pm-3m,4.5503232,-8.737421646,-2.001217212749996,0.471741007999987,False,10.566327024609377,0.0,False,55.87514304904544,,
mp-1186662,PuGaO3,5,Pu1 Ga1 O3,3.873306,3.873306,3.873306,90.0,90.0,90.0,cubic,Pm-3m,4.9997973,-9.105156529999999,-2.583174226249997,0.26899824050000304,False,10.336598193475862,0.0,False,58.10927082340733,,
mp-1186797,PuInO3,5,Pu1 In1 O3,4.148644,4.148644,4.148644,90.0,90.0,90.0,cubic,Pm-3m,5.0055607,-8.571502524,-2.10330467608333,0.6572246968888941,False,9.46082107196941,0.0,False,71.40333675976989,,
mp-975596,PuIrO3,5,Pu1 Ir1 O3,4.134388,4.134388,4.134388,90.0,90.0,90.0,cubic,Pm-3m,0.0073069,-8.761225264,-1.077175328749997,1.396932767500001,False,11.377682787854042,0.0,False,70.66977267988912,,
mp-1186787,PuMgO3,5,Pu1 Mg1 O3,3.82791,3.82791,3.82791,90.0,90.0,90.0,cubic,Pm-3m,4.0,-8.940718497999999,-2.698261395749997,0.612902516000001,False,9.364132025367192,0.0,False,56.08996317733968,,
mp-1188081,PuNiO3,5,Pu1 Ni1 O3,3.777441999999999,3.777441999999999,3.777441999999999,90.0,90.0,90.0,cubic,Pm-3m,6.0061753,-9.139632452,-2.067242016749998,0.515832346999996,False,10.803912212138673,0.0,False,53.90057700340984,,
mp-1186799,PuPbO3,5,Pu1 Pb1 O3,4.358038,4.358038,4.358038,90.0,90.0,90.0,cubic,Pm-3m,3.9732305,-9.128231406000001,-2.469338892749996,0.21449028581249602,False,10.0149565599103,0.0,False,82.77001583757489,,
mp-975588,PuPtO3,5,Pu1 Pt1 O3,4.054549,4.054549,4.054549,90.0,90.0,90.0,cubic,Pm-3m,5.1981661,-8.654109029999999,-1.5235192667499962,0.8616949345000001,False,12.134550585315099,0.0,False,66.65422143645642,"{'voigt': 259.1, 'reuss': 259.06, 'vrh': 259.08}","{'voigt': 39.904, 'reuss': 3.348, 'vrh': 21.626}"
mp-510492,PuRh3C,5,Pu1 Rh3 C1,4.18414713,4.20821912,4.18396986,90.0,90.0,90.0,cubic,Pm-3m,4.8796185,-9.328010456000001,-0.116106139249998,0.120766390499996,False,12.728990528120491,0.0,False,73.67053777752288,,
mp-19828,PuRu3C,5,Pu1 Ru3 C1,4.167104,4.167104,4.167104,90.0,90.0,90.0,cubic,Pm-3m,0.087700099999999,-10.02903199,0.328929128750003,0.328929128750001,False,12.833033203001092,0.0,False,72.36074313157995,,
mp-1186801,PuSbO3,5,Pu1 Sb1 O3,4.315703,4.315703,4.315703,90.0,90.0,90.0,cubic,Pm-3m,3.452201999999999,-8.76589625,-2.023732902749998,0.656019841666671,False,8.547538440992328,0.0,False,80.38123021840794,,
mp-1186812,PuTiO3,5,Pu1 Ti1 O3,3.917506,3.917506,3.917506,90.0,90.0,90.0,cubic,Pm-3m,5.6479283,-10.71928681,-3.223825307416663,0.08042102100000201,False,9.386999278252842,0.0,False,60.121389727310586,,
mp-2647162,PuTlO3,20,Pu1 Tl1 O3,6.131711,6.130994,8.657264,90.0,90.0,90.0,tet,P4/mbm,11.9998883,-8.9094908055,-2.518833282916666,0.0,True,10.130513180308434,0.0,False,325.4567100469089,,
mp-1219701,PuUC3,20,Pu1 U1 C3,7.0205346286008465,7.020505766322145,7.020486836691364,109.43111279091335,109.45237966376304,109.5304483040681,cubic,I2_13,21.4709209,-10.739496429500003,0.0035713642500010004,0.070238071249999,False,12.918373532554602,0.0,False,266.3680667908779,,
mp-1209729,PuVO3,20,Pu1 V1 O3,5.440206,5.761251,7.769389,90.0,90.0,90.0,ortho,Pnma,28.000535,-10.625839832,-2.8926955187499983,0.047993956083338,False,9.354225699896658,0.0,False,243.51123764070616,,
mp-4405,Rb3AuO,5,Rb3 Au1 O1,5.50932825,5.50932825,5.50932825,90.0,90.0,90.0,cubic,Pm-3m,0.0,-3.048704132,-0.8160150875000001,0.0,True,4.660879718495778,0.19789999999999902,False,167.2229752673024,"{'voigt': 15.595, 'reuss': 15.595, 'vrh': 15.595}","{'voigt': 9.747, 'reuss': 9.051, 'vrh': 9.399000000000001}"
mp-30055,Rb3BrO,5,Rb3 Br1 O1,5.47741978,5.47741978,5.47741978,90.0,90.0,90.0,cubic,Pm-3m,0.0,-3.405707554,-1.500405602499999,0.0027945930000010002,False,3.559934815422609,0.3851,True,164.33424631663758,,
mp-754892,Rb3ClO,5,Rb3 Cl1 O1,5.533679,5.533679,5.533679,90.0,90.0,90.0,cubic,Pm-3m,4.6900000000000015e-05,-3.500376681999999,-1.552756705499999,0.041447582000001,False,3.016855778920252,0.47940000000000005,True,169.45012298942564,"{'voigt': 17.011, 'reuss': 17.011, 'vrh': 17.011}","{'voigt': 10.63, 'reuss': 9.31, 'vrh': 9.97}"
mp-755428,Rb3ClO,20,Rb3 Cl1 O1,8.71371812,4.32145197,15.72080491,90.0,90.0,90.0,ortho,Pnma,0.0,-3.541824264000001,-1.594204287500002,0.0,True,3.4542077425604383,1.223399999999999,False,591.9812829791914,,
mp-756979,Rb3ClO,20,Rb3 Cl1 O1,7.718872,7.737949,10.958862,90.0,90.0,90.0,ortho,Pnma,0.0010724,-3.5266640545000003,-1.579044078,0.015160209500001002,False,3.124001750829412,0.9366999999999991,True,654.5535163591668,,
mp-772199,Rb3ClO,30,Rb3 Cl1 O1,7.745880125863103,7.745880125863103,19.740944,90.0,90.0,120.00000107502774,hex_,P6_3/mmc,0.000153,-3.500219983,-1.5526000065,0.041604281000001006,False,2.990250703240124,0.6119999999999991,True,1025.7466015651567,,
mp-29019,Rb3IO,30,Rb3 I1 O1,7.901286807661688,7.9013027168699725,19.71391186770717,90.0024011830791,89.9969637356418,119.99955188149961,hex_,P6_3/mmc,0.0,-3.285031565666666,-1.402316398166666,0.0,True,3.732550007355596,0.633999999999999,True,1065.86433420431,,
mp-975463,RbAcO3,5,Rb1 Ac1 O3,4.636158,4.636158,4.636158,90.0,90.0,90.0,cubic,Pm-3m,0.00019209999999900002,-6.215895894,-2.226777475,0.18033347099999902,False,6.006738421990205,0.0,False,99.64939924630725,"{'voigt': 61.109, 'reuss': 61.109, 'vrh': 61.109}","{'voigt': 34.721, 'reuss': 31.954, 'vrh': 33.337}"
mp-998212,RbAgBr3,5,Rb1 Ag1 Br3,5.445471226697833,5.448177134200117,5.447170082191853,90.16348530508289,90.0904084239241,90.00257384188409,mono,Cm,0.001518499999999,-2.9560106900000003,-1.209148418833332,0.0,True,4.449690670296919,0.0,False,161.6051934830367,,
mp-998226,RbAgBr3,5,Rb1 Ag1 Br3,5.446824444970574,5.446824444970574,5.447169746515065,89.87304177322679,89.87304177322679,90.00257359589709,tet,P4mm,0.0072009,-2.955828678,-1.2089664068333321,0.000182012,False,4.449688432152706,0.0,False,161.60527476866693,,
mp-1975771,RbAgCl3,5,Rb1 Ag1 Cl3,5.08785996,5.087955359552138,5.084282022337793,90.05524840218033,90.0,90.0,cubic,Pm-3m,0.254403,-3.2906508060000013,-1.4168344598333331,0.001968153999999,False,3.781122282085564,0.0,False,131.6157527944835,,
mp-998201,RbAgCl3,5,Rb1 Ag1 Cl3,5.165475,5.167096,5.16928314922253,89.93675529568517,90.0,90.0,mono,Pm,0.0004494,-3.29261896,-1.418802613833333,0.0,True,3.606963466959938,0.0,False,137.97069477505036,,
mp-1055491,RbAgF3,5,Rb1 Ag1 F3,4.352208894913502,6.145367684549083,6.144904236425913,119.9466536063228,90.06301513045251,44.90681261391213,cubic,Pm-3m,9e-07,-4.042720291,-2.131138560333333,0.0,True,5.058941088262324,0.0,False,82.1683324390747,,
mp-7767,RbAgF3,10,Rb1 Ag1 F3,6.152127493878694,6.152127444069665,6.1521275440225915,90.35099542903093,119.79756804418572,119.79755238209734,tet,I4/mcm,7.299999999999999e-06,-4.041566687000001,-2.129984956333333,0.001153603999998,False,5.034021616981131,0.0,False,165.15016611284094,,
mp-867844,RbAgF3,5,Rb1 Ag1 F3,4.295127693697592,4.295127693697592,4.364427,90.0,90.0,104.56623398074144,ortho,Cmmm,0.0018183,-3.92832923,-2.016747499333333,0.114391061,False,5.334248671452057,0.0,False,77.92751683188361,,
mp-975421,RbAgO3,5,Rb1 Ag1 O3,4.255792,4.255792,4.255792,90.0,90.0,90.0,cubic,Pm-3m,1.7666718000000001,-4.1872064899999994,-0.453735536833333,0.353712061000001,False,5.199083434449306,0.0,False,77.07990692192173,,
mp-975427,RbAlO3,5,Rb1 Al1 O3,3.94407,3.94407,3.94407,90.0,90.0,90.0,cubic,Pm-3m,1.9975117,-5.839371856,-1.9253732725,0.37965470773332405,False,4.34258485798466,0.0,False,61.35272302053714,"{'voigt': 112.414, 'reuss': 112.414, 'vrh': 112.414}","{'voigt': 41.106, 'reuss': 40.904, 'vrh': 41.005}"
mp-975425,RbAsO3,5,Rb1 As1 O3,3.939416,3.939416,3.939416,90.0,90.0,90.0,cubic,Pm-3m,4.7900000000000006e-05,-5.457235226,-1.358327302,0.205453433899998,False,5.660117370269648,0.0,False,61.135790683882746,"{'voigt': 102.651, 'reuss': 102.651, 'vrh': 102.651}","{'voigt': 103.519, 'reuss': 99.394, 'vrh': 101.456}"
mp-1110999,RbAuBr3,5,Rb1 Au1 Br3,5.43699,5.43699,5.43699,90.0,90.0,90.0,cubic,Pm-3m,0.0006282,-2.971952624,-1.138901488499999,0.046297393000003004,False,5.394680852468055,0.0,False,160.72210162556107,,
mp-27300,RbAuBr3,10,Rb1 Au1 Br3,7.400640238829647,7.349293435372102,8.496345100314821,62.56453009787803,64.18166802036326,59.76861089129204,mono,C2/m,0.0,-3.018250017000002,-1.185198881500002,0.0,True,5.075649373663879,0.7293000000000001,False,341.6486760124486,,
mp-1110791,RbAuCl3,5,Rb1 Au1 Cl3,5.163533,5.163533,5.163533,90.0,90.0,90.0,cubic,Pm-3m,0.0010394,-3.282813207999999,-1.322807997499999,0.053702937250000006,False,4.689505785122908,0.0,False,137.67049400123696,,
mp-1111644,RbAuF3,5,Rb1 Au1 F3,4.514405,4.514405,4.514405,90.0,90.0,90.0,cubic,Pm-3m,0.002759299999999,-3.911658435999999,-1.913887840999999,0.12659574066666401,False,6.126285436095047,0.0,False,92.00290804343298,,
mp-568666,RbAuI3,10,Rb1 Au1 I3,7.9126469308276866,7.912647765799925,8.795059565731414,65.4952059261743,65.49519854403746,60.68249464364551,mono,C2/m,0.0,-2.675341360999999,-0.9100505774999991,0.0,True,5.230695886886685,0.7061000000000001,False,421.0463837972993,,
mp-975405,RbAuO3,5,Rb1 Au1 O3,4.21732,4.21732,4.21732,90.0,90.0,90.0,cubic,Pm-3m,1.3788963,-4.343844862,-0.5241850445,0.38479988600000004,False,7.3151338634953245,0.0,False,75.00835937393516,,
mp-975385,RbBO3,5,Rb1 B1 O3,3.69368,3.69368,3.69368,90.0,90.0,90.0,cubic,Pm-3m,1.999727,-5.098590140000001,-0.5978283683333331,1.499975552333333,False,4.754100925449175,0.0,False,50.39388070820404,"{'voigt': 123.719, 'reuss': 123.719, 'vrh': 123.719}","{'voigt': 46.853, 'reuss': -168.421, 'vrh': -60.784}"
mp-9047,RbBS3,20,Rb1 B1 S3,5.832857964936414,7.125645592599007,11.91701952,90.0,90.0,104.68403450681599,mono,P2_1/c,0.0,-5.031868422499992,-1.016867513333323,0.0,True,2.668265249668954,2.4085,False,479.1281739873625,,
mp-10552,RbBSe3,20,Rb1 B1 Se3,12.701163,6.283839,7.503958619985054,75.34263110846683,90.0,90.0,mono,P2_1/c,0.0011573,-4.462325289000001,-0.832793233739582,0.0,True,3.8191793545415162,1.6569,False,579.4157869268114,,
mp-1219638,RbBaN3,20,Rb1 Ba1 N3,15.274366967006292,14.936982818532329,6.809731135858816,79.7557532494939,74.2219896994684,26.022257051037702,ortho,Fddd,24.0019858,-4.2773274375,1.305541011999999,1.793950968833333,False,2.715455376167445,0.0,False,647.7521092442457,,
mp-975387,RbBaO3,5,Rb1 Ba1 O3,4.995185,4.995185,4.995185,90.0,90.0,90.0,cubic,Pm-3m,3.0,-4.828164082,-1.279485676499999,0.515827346,False,3.6077114883669053,0.0,False,124.63922265174297,,
mp-975031,RbBeH3,20,Rb1 Be1 H3,5.893298,7.353153,9.40290436419833,73.82387418406995,90.0,90.0,mono,P2_1/c,0.000136599999999,-3.172712765499999,-0.191623514749999,0.0014871951666660002,False,1.6549314477572432,3.3379,True,391.3367471080434,,
mp-1197886,RbBeN3,80,Rb1 Be1 N3,8.430366,14.111112,15.125707,90.0,90.0,90.0,ortho,Pbca,16.0,-5.092030375125,0.8549256593749991,1.347948162486111,False,2.015480684362828,0.0,False,1799.3819182783045,,
mp-975394,RbBeO3,5,Rb1 Be1 O3,3.881145,3.881145,3.881145,90.0,90.0,90.0,cubic,Pm-3m,3.0,-4.961337694,-1.0485717035,0.7759267950000011,False,4.046856990886123,0.0,False,58.46279912583213,"{'voigt': 84.653, 'reuss': 84.653, 'vrh': 84.653}","{'voigt': 27.467, 'reuss': 0.275, 'vrh': 13.871}"
mp-1173046,RbBiF3,10,Rb1 Bi1 F3,4.260722,4.260722,12.904108,90.0,90.0,90.0,tet,P4/nmm,0.0036833,-4.424616943,-2.3036158860000002,0.387908709733335,False,4.982417431584866,0.0,False,234.25797591362058,,
mp-677028,RbBiF3,10,Rb1 Bi1 F3,5.026896,5.161673372571437,8.672505136092685,96.27132867896376,92.60776583554801,96.62099660644024,tri,P1,0.0002713,-4.658075653999999,-2.537074597,0.154449998733336,False,5.262176762853506,1.3584,False,221.80384188517687,,
mp-975384,RbBiO3,5,Rb1 Bi1 O3,4.259822,4.259822,4.259822,90.0,90.0,90.0,cubic,Pm-3m,0.0005203,-5.390518846000001,-1.447628566500001,0.0,True,7.356434052251263,0.0,False,77.29908558651587,,
mp-28872,RbBrO3,5,Rb1 Br1 O3,4.466985700020864,4.46698526739264,4.466986082465983,87.6633265073574,87.66333298226868,87.66332228038118,trig,R3m,0.0,-4.5452298419999995,-1.052957117499999,0.0,True,3.9846923411126793,3.9953000000000003,True,88.91758517584954,,
mp-31271,RbCO3,40,Rb1 C1 O3,10.710959,7.878144,8.044678632499373,78.49516639221373,90.0,90.0,mono,P2_1/c,0.001258499999999,-6.7352210382500015,-1.72460452225,0.057108608750001004,False,2.905268685748301,3.9411,False,665.1907820163016,,
mp-1209227,RbCaBr3,5,Rb1 Ca1 Br3,5.73669,5.73669,5.73669,90.0,90.0,90.0,cubic,Pm-3m,0.000246199999999,-3.839853948,-2.2604592365,0.023744037500005002,False,3.212657664168919,4.0839,False,188.79224295977733,,
mp-1209238,RbCaBr3,20,Rb1 Ca1 Br3,7.78124338,8.11548266,11.15646626,90.0,90.0,90.0,ortho,Pnma,0.0,-3.8635154680000032,-2.284120756500003,8.251750000365377e-05,False,3.443646614513652,4.6259999999999994,False,704.5146197337431,,