mp_id,formula,sites,composition,a_edge (angstrom),b_edge (angstrom),c_edge (angstrom),alpha_ang (deg),beta_ang (deg),gamma_ang (deg),crystal_system,space_group,total_magnetisation (bohr),energy_per_atom (eV/atom),formation_energy (eV/atom),energy_above_hull (eV/atom),stable,density (g/cc),band_gap (eV),direct_bandgap,volume (cubic-angstrom),bulk_modulus (GPa),shear_modulus (GPa)
mp-510381,Fe3NiN,5,Fe3 Ni1 N1,4.290839,4.290839,4.290839,90.0,90.0,90.0,cubic,Pm-3m,10.9903852,-6.121132214,1.7845633970000012,1.937313457499999,False,5.049622363683991,0.0,False,78.99992117975385,,
mp-567703,Fe3NiN,5,Fe3 Ni1 N1,3.774044,3.774044,3.774044,90.0,90.0,90.0,cubic,Pm-3m,8.0131899,-8.032090491999998,-0.12639488099999702,0.026355179500001002,False,7.421038440795771,0.0,False,53.75524893195147,"{'voigt': 203.967, 'reuss': 203.967, 'vrh': 203.967}","{'voigt': 89.789, 'reuss': 84.113, 'vrh': 86.951}"
mp-16334,Fe3PdN,5,Fe3 Pd1 N1,3.85021387,3.85019387,3.85026736,90.0,90.0,90.0,cubic,Pm-3m,8.8165258,-7.983002003999999,-0.197357366999997,0.0,True,8.377713149712525,0.0,False,57.07663224909501,,
mp-510382,Fe3PtN,5,Fe3 Pt1 N1,4.690942,4.690942,4.690942,90.0,90.0,90.0,cubic,Pm-3m,11.6663812,-5.978059606,1.985835333,2.237165208,False,6.058691781427252,0.0,False,103.22388246464736,,
mp-579496,Fe3PtN,5,Fe3 Pt1 N1,3.84908392,3.84911315,3.84906827,90.0,90.0,90.0,cubic,Pm-3m,8.7936485,-8.215224814,-0.25132987500000004,0.0,True,10.966937722829178,0.0,False,57.02610009663068,"{'voigt': 206.727, 'reuss': 206.727, 'vrh': 206.727}","{'voigt': 99.579, 'reuss': 98.05, 'vrh': 98.815}"
mp-580234,Fe3RhN,5,Fe3 Rh1 N1,3.83973055,3.83963097,3.838945889999999,90.0,90.0,90.0,cubic,Pm-3m,9.5591468,-8.368635934,-0.14610608499999903,0.0,True,8.34542646255786,0.0,False,56.59814871105021,"{'voigt': 180.818, 'reuss': 180.818, 'vrh': 180.818}","{'voigt': 83.217, 'reuss': 80.978, 'vrh': 82.097}"
mp-1246554,Fe3SbN,10,Fe3 Sb1 N1,5.453965,5.460638926678543,5.460638926678543,60.915123146205794,60.04041536530437,60.04041536530437,ortho,Imma,6.7977491,-7.614361763,-0.038893239999998004,0.133949892249999,False,8.69535016250385,0.0,False,115.84221736992532,,
mp-1212682,Fe3SiNi,20,Fe3 Si1 Ni1,6.109967,6.109967,6.109967,90.0,90.0,90.0,cubic,P2_13,27.4624091,-7.58068774,-0.257584072,0.022208810709674003,False,7.405639939552351,0.0,False,228.09543514206138,,
mp-21850,Fe3SnC,5,Fe3 Sn1 C1,3.891169,3.891169,3.891169,90.0,90.0,90.0,cubic,Pm-3m,0.0624058,-7.660446729999999,0.0692134655,0.07030343849999901,False,8.406158407455472,0.0,False,58.91695322406438,,
mp-1225284,Fe3SnSb,5,Fe3 Sn1 Sb1,4.209408432069879,4.211204,5.399645129810013,90.0,89.97470684383214,59.9858884843549,trig,P3m1,5.7419772,-6.59431381,0.11541353500000101,0.16330464799999903,False,8.174349741327417,0.0,False,82.88221856263685,,
mp-1184234,FeAgO3,5,Fe1 Ag1 O3,3.862384999999999,3.862384999999999,3.862384999999999,90.0,90.0,90.0,cubic,Pm-3m,5.4824302,-5.926390778,-0.695022397333332,0.345864825833333,False,6.101360078973732,0.0,False,57.61912852121193,,
mp-1184215,FeAsO3,5,Fe1 As1 O3,3.799462,3.799462,3.799462,90.0,90.0,90.0,cubic,Pm-3m,3.6312272,-6.48276029,-0.8859549385000001,0.7807650435000001,False,5.412087243894191,0.0,False,54.84869713950589,,
mp-1199904,FeBO3,40,Fe1 B1 O3,3.149366497262584,10.364107,12.426982981218933,90.0,97.54344783779013,90.0,mono,P2_1/c,40.0051741,-8.17708015475,-2.178420955583333,0.09194137625000201,False,3.787766300929518,1.517599999999999,True,402.110928972674,,
mp-1274711,FeBO3,20,Fe1 B1 O3,4.998054302897579,7.387514288143882,7.38774593911932,108.32990117715308,70.5900308829837,109.41150467463842,hex_,P6_3/mmc,0.0,-8.1665428,-2.167883600833333,0.102478731000001,False,3.224428721596601,0.6726999999999991,True,236.18171736852372,,
mp-19097,FeBO3,10,Fe1 B1 O3,5.52196401856736,5.521963684117294,5.52196325630176,49.74109870907747,49.741092123711994,49.74110200893897,trig,R-3c,9.9999998,-8.269021531000002,-2.270362331833334,0.0,True,4.222110400646406,1.481599999999999,False,90.18607292723622,,
mp-849295,FeBO3,20,Fe1 B1 O3,4.988757981163147,8.657854000272412,5.456182502449309,89.99964313528228,93.91656595247034,90.000854208999,mono,C2/c,1.4e-06,-8.1663691055,-2.167709906333333,0.102652425500002,False,3.239089326568591,0.512999999999999,False,235.11272342891718,,
mp-1069079,FeBiO3,10,Fe1 Bi1 O3,4.879828000000102,5.3052998497696615,5.305304092410349,90.00001527310944,90.00001910210509,90.00001910211371,tet,P4mm,0.0,-7.088385497,-1.64759779,0.026811494000001,False,7.5640409481152755,1.3463,False,137.34875639029534,,
mp-1181394,FeBiO3,20,Fe1 Bi1 O3,5.633780047762337,5.553403143281604,7.876305,90.0,90.0,88.12752217846639,mono,P2_1/m,20.0005435,-6.8585577465,-1.4177700395000001,0.25663924450000103,False,8.436434664738288,0.12760000000000002,False,246.29162882069974,,
mp-1181635,FeBiO3,5,Fe1 Bi1 O3,6.220049513751237,5.521600696125536,4.465726156346468,90.19429885541882,134.14054172224303,89.72101114652958,tet,P4/mmm,4.0846894,-5.012193886,0.42859382099999904,2.103003105000001,False,4.7195436197539085,0.0,False,110.06483901965457,,
mp-1181670,FeBiO3,10,Fe1 Bi1 O3,13.327578456113436,5.901643516261297,9.528144788285125,100.29265817380333,134.3772393615865,75.19808406519827,mono,Cc,11.9969572,-5.417101346000001,0.023686360999999,1.698095645,False,2.006079857382676,0.7019000000000001,False,517.8814859665492,,
mp-1181856,FeBiO3,5,Fe1 Bi1 O3,8.464880462695028,5.388093915783112,5.321518785102708,122.20989581616584,142.68780258764497,47.919178243996576,mono,Cm,5.0000302,-6.699512562000001,-1.258724855000001,0.415684429,False,4.7571878537580226,1.4146,False,109.19388191578322,,
mp-1182718,FeBiO3,10,Fe1 Bi1 O3,17.059404228201785,17.059404228201785,10.741489341464012,72.14831453147688,72.14831453147688,84.9241803921023,mono,Cc,17.3690791,-3.70158609,1.739201616999999,3.413610901000001,False,0.366821176263641,0.0,False,2832.201859475577,,
mp-1193035,FeBiO3,30,Fe1 Bi1 O3,5.611531675446375,7.9447849999999995,9.81426749185842,113.875897425996,106.91210572291881,90.0,mono,C2/m,30.0039808,-7.058785729999999,-1.6179980230000002,0.056411261000001,False,8.216757680391034,1.6433,False,379.3144417492893,,
mp-22949,FeBiO3,10,Fe1 Bi1 O3,5.662175000004326,5.662543744314035,5.818595242377407,119.11880735492355,89.99992081185553,119.99798096650767,trig,R3m,0.0,-7.08161758,-1.640829873,0.033579411000001,False,7.773373896524185,1.7783000000000002,False,133.6500252449514,,
mp-23501,FeBiO3,10,Fe1 Bi1 O3,5.588111297438877,5.588104960371853,5.647855250082794,60.35063440879164,119.64937733189838,119.99963616964396,trig,R3c,10.0000001,-7.113564488,-1.672776781,0.001632503000001,False,8.287008783415024,1.279099999999999,False,125.36629858388716,,
mp-547069,FeBiO3,10,Fe1 Bi1 O3,3.9444496628313055,3.9444496628313055,7.892021,90.0,90.0,90.03138878980074,cubic,Pm-3m,9.9995794,-6.859884235999999,-1.419096528999999,0.255312755000002,False,8.460920207507165,0.0,False,122.78943566765976,,
mp-548231,FeBiO3,10,Fe1 Bi1 O3,5.498973982972612,5.498970037704628,5.498970758351166,59.711085459580914,59.71107705671814,59.71120248430919,trig,R3,6.000011,-7.053073915999997,-1.612286208999997,0.062123075000004004,False,8.8942255344319,0.0,False,116.80742898715596,,
mp-551451,FeBiO3,5,Fe1 Bi1 O3,5.430644,5.458528411681669,5.524043330056888,66.90638248766575,67.50512893589979,65.21539056092885,tri,P1,5.0000427,-6.677269874000001,-1.236482167000001,0.43792711700000003,False,3.935109620597321,1.6259000000000001,False,132.00542267882287,,
mp-555351,FeBiO3,10,Fe1 Bi1 O3,3.9444496628313055,3.9444496628313055,7.892021,90.0,90.0,90.03138878980074,ortho,Cmcm,10.0016656,-6.859807798,-1.4190200910000001,0.255389193,False,8.460920207507165,0.0,False,122.78943566765976,,
mp-645159,FeBiO3,20,Fe1 Bi1 O3,5.4363251300002045,5.676451360007656,7.796731880011744,89.9998078120965,89.99999454748621,89.99996887087931,ortho,Pnma,20.0000004,-7.103591225,-1.6628035179999991,0.011605766000001001,False,8.636020314780833,1.541999999999999,False,240.59962335446852,,
mp-654759,FeBiO3,5,Fe1 Bi1 O3,5.136741822521354,5.136741391616576,5.136741334652738,72.09140823106492,72.09139948535655,72.09140023499245,trig,R3,5.0000007,-6.52657535,-1.085787643,0.588621641000001,False,4.354910310918767,1.1601,False,119.2804837913782,,
mp-655631,FeBiO3,5,Fe1 Bi1 O3,5.427758962452644,5.427758962452644,5.42775796755981,66.29821601399705,66.29821601399705,66.2982188886984,trig,R3,4.9999956999999995,-6.6749197460000005,-1.234132039,0.44027724500000004,False,4.044418207321099,1.7789000000000001,False,128.43770899214786,,
mp-18969,FeCO3,10,Fe1 C1 O3,5.679365807935329,5.679365930467997,5.67936025914306,48.88741060816429,48.88740145843075,48.887431816635356,trig,R-3c,8.0000006,-8.298319626,-1.789805682499999,0.0,True,4.030868222290347,0.0,False,95.4533447182052,,
mp-675126,FeCO3,10,Fe1 C1 O3,6.142323900936111,5.117571621779221,5.117571497591509,60.39162783936928,60.10378540107896,60.103781081567085,mono,Cc,8.0001598,-6.780641645,-0.27212770149999904,1.517677980999999,False,3.367376832783398,1.4102000000000001,False,114.26100286432916,,
mp-22334,FeGeO3,20,Fe1 Ge1 O3,6.687314112384484,6.687314112384484,5.175052625489379,81.47574199350242,81.47574199350242,84.79373087443479,mono,C2/c,16.0283091,-7.504117007,-1.9167305910000012,0.012197311499998,False,5.191813043777707,1.9617,False,225.78413030477273,,
mp-1096837,FeGeS3,20,Fe1 Ge1 S3,6.0410533431421545,7.7178370706924095,7.7178369209198125,83.75699698682048,83.83293520232955,83.83293160903851,mono,C2/c,0.0023747,-5.6429623740000014,-0.5413368204999991,0.167047032000001,False,4.216198449583818,0.035699999999999,False,353.95859274177735,,
mp-1080474,FeNCl3,10,Fe1 N1 Cl3,6.843882283620679,6.843882283620679,5.564048,90.0,90.0,120.0000027417469,hex_,P6_3/mmc,8.0,-4.307550664,0.163231122999999,1.094979541666663,False,2.592894341894389,0.0,False,225.69739659283854,,
mp-1212990,FeNCl3,10,Fe1 N1 Cl3,5.609413,8.440726742717418,8.440726742717418,120.00000582151155,90.0,90.0,hex_,P6_3mc,8.0,-4.316914687,0.153867099999999,1.085615518666663,False,1.6908444842065231,0.0,False,346.10486539244994,,
mp-1272388,FeNiO3,10,Fe1 Ni1 O3,5.051717697700555,5.431569312275137,5.051735002974225,62.28753419199629,59.99917527134649,89.99929356860765,trig,R3,7.9991163,-7.099244788,-1.280436607,0.07753396433333201,False,5.330427562165263,0.0,False,101.26706381606004,,
mp-768499,FeNiO3,10,Fe1 Ni1 O3,5.055914763796755,5.451279583340961,5.055900000072193,62.37169919087038,59.999725192054456,89.99977642445228,trig,R-3,4.0000009,-7.094728297,-1.275920116,0.08205045533333101,False,5.296360279461146,0.38419999999999904,False,101.91843447621245,,
mp-1232490,FePS3,20,Fe1 P1 S3,5.860704071524086,7.918623163264558,10.118141076146546,68.74976132407222,77.18836502391501,75.12379224252007,tri,P-1,3.2e-06,-5.8158386865,-0.55572399892857,0.126815380227271,False,2.903742689389936,0.42839999999999906,False,418.6342028677243,,
mp-2931287,FePS3,20,Fe1 P1 S3,5.874893186612032,10.33324698121566,7.677210002562677,89.94263303694096,105.90537383372876,89.99965100177859,mono,P2_1/m,0.0,-5.8166027455,-0.556488057928569,0.126051321227271,False,2.712103146574706,0.5063999999999991,False,448.2152559872241,"{'voigt': 32.19, 'reuss': -251.973, 'vrh': -109.892}","{'voigt': 22.035, 'reuss': -53.466, 'vrh': -15.716}"
mp-5864,FePS3,20,Fe1 P1 S3,5.85832785540183,10.360936283854322,7.085563764264775,90.02324655574108,106.04069083631333,89.98081301892961,mono,C2/m,4e-07,-5.810363875,-0.5502491874285701,0.13229019172727102,False,2.940984399771395,0.20599999999999902,False,413.33303440855656,,
mp-2928,FePSe3,10,Fe1 P1 Se3,7.276442602215522,7.276442602215522,7.276442369430338,50.13797486445718,50.13797486445718,50.13798026677377,trig,R-3,0.000348899999999,-5.289859963,-0.41521412933482005,0.111388733,False,5.144585784772708,0.0015,False,208.9631556740785,"{'voigt': 220.757, 'reuss': -1376181.553, 'vrh': -687980.398}","{'voigt': 21447114937326.88, 'reuss': -9607868.676, 'vrh': 10723552664729.102}"
mp-973579,FePbO3,5,Fe1 Pb1 O3,3.947543999999999,3.947543999999999,3.947543999999999,90.0,90.0,90.0,cubic,Pm-3m,4.0622893,-6.761996207999999,-1.356685948999998,0.198250186250009,False,8.396317842913724,0.0,False,61.514987243627175,,
mp-1184349,FeRhO3,5,Fe1 Rh1 O3,3.898442,3.898442,3.898442,90.0,90.0,90.0,cubic,Pm-3m,5.1219675,-6.499841534000001,-0.364199115,1.037876189249996,False,5.794535835922729,0.0,False,59.247936856376974,,
mp-973648,FeRhO3,5,Fe1 Rh1 O3,3.770073,3.770073,3.770073,90.0,90.0,90.0,cubic,Pm-3m,7.7374428,-6.602590334,-0.46694791500000005,0.935127389249996,False,6.406821234410597,0.0,False,53.58574568537138,,
mp-540655,FeSO3,30,Fe1 S1 O3,7.939677485494736,7.929676010159116,7.944167013603503,109.22212729916853,109.5318350901386,109.66899001802582,trig,R-3,23.9999844,-7.138344802666667,-1.647892044166667,0.105119724025639,False,3.517355212430613,2.7701000000000002,False,384.9725636587033,,
mp-1199561,FeSiO3,40,Fe1 Si1 O3,9.226737,5.315424,9.587240849586392,76.91569321713199,90.0,90.0,mono,P2_1/c,31.9999979,-8.32495068225,-2.5771062312499993,0.015693276416667002,False,3.826685495614563,0.7031000000000001,True,457.98957997841615,,
mp-18269,FeSiO3,20,Fe1 Si1 O3,5.392017583893991,6.7768129122065925,6.788578601318394,86.18256993038567,75.73327588560036,75.75190409272952,mono,C2/c,16.0009888,-8.322428204000001,-2.574583753,0.018215754666666,False,3.760758103493171,1.452199999999999,False,233.0091479718051,,
mp-21939,FeSiO3,80,Fe1 Si1 O3,5.362383,9.229569,18.705614,90.0,90.0,90.0,ortho,Pbca,64.0000023,-8.325332232125,-2.577487781124999,0.015311726541668002,False,3.786144146165661,2.7758000000000003,False,925.787299789366,,
mp-561362,FeSiO3,20,Fe1 Si1 O3,5.367727314173383,6.847111509900434,6.847111913191868,80.825133507247,73.39654772922793,73.39654754278558,mono,C2/c,16.0002897,-8.256560125,-2.5087156740000003,0.08408383366666701,False,3.805390637696693,2.9807,False,230.27623832947737,,
mp-650392,FeSiO3,90,Fe1 Si1 O3,6.753778,7.555640724160261,20.896418635201798,84.26484862176252,81.20590443011966,84.60398827462444,tri,P-1,72.0073603,-8.317575560777778,-2.569731109777778,0.02306839788889,False,3.7729731675733493,2.7187,True,1045.1464962152727,,
mp-1178212,FeSnO3,20,Fe1 Sn1 O3,5.337292043149578,9.084800172712876,5.472166757314117,74.37808331152036,68.38294472224653,90.25759004958807,tri,P-1,16.0231149,-7.323507478000002,-1.858812262000002,0.0,True,6.264690592443936,0.8620000000000001,False,235.9626720863631,,
mp-1178214,FeSnO3,20,Fe1 Sn1 O3,5.439315000420089,5.461441002875614,7.868700001586857,89.99699990688556,90.0008368223258,90.00018924429554,ortho,Pnma,1.0500000000000001e-05,-7.288322943500001,-1.8236277275,0.0351845345,False,6.323950878236458,0.986399999999999,False,233.75152028372537,,
mp-1207083,FeSnO3,5,Fe1 Sn1 O3,4.02578,4.02578,4.02578,90.0,90.0,90.0,cubic,Pm-3m,3.9993122,-6.546368164,-1.081672948,0.777139314000001,False,5.664124969489379,0.0,False,65.24543243440456,,
mp-1078259,GaBO3,10,Ga1 B1 O3,5.424855065293288,5.424855065293288,5.424854794819349,49.8960476983435,49.8960476983435,49.89606988683267,trig,R-3c,0.0,-7.440028688000001,-2.529754526333334,0.003771963166665,False,4.967413209102039,3.8638999999999992,True,85.93315290339086,,
mp-1184023,GaBO3,5,Ga1 B1 O3,3.364261,3.364261,3.364261,90.0,90.0,90.0,cubic,Pm-3m,0.0016908,-6.037222814,-1.126948652333333,1.406577837166667,False,5.605211383792214,0.0,False,38.07755404786291,,
mp-22979,GaBiO3,5,Ga1 Bi1 O3,3.85294926,3.85294926,3.85294926,90.0,90.0,90.0,cubic,Pm-3m,0.0,-6.090197467999997,-1.737794798499997,0.22770766750000102,False,9.484632097654773,1.2244,False,57.19787170815708,,
mp-558285,GaBiO3,20,Ga1 Bi1 O3,5.15381992,5.43275855,9.93184812,90.0,90.0,90.0,ortho,Pcca,0.0,-6.315899490499999,-1.9634968209999992,0.0020056449999990003,False,7.803341920061429,1.8794,False,278.0863765695177,,
mp-755568,GaBiO3,10,Ga1 Bi1 O3,5.64157233826218,5.64157233826218,5.641572613697886,59.337235392222155,59.337235392222155,59.33722594524211,trig,R3c,0.000117199999999,-6.266792587999999,-1.9143899185,0.051112547499998,False,8.67655615847845,3.0525,False,125.04979164817883,,
mp-1096988,GaCuBr3,10,Ga1 Cu1 Br3,7.240611277004449,7.240611277004449,7.240611277004449,116.28607753614833,116.28607753614833,96.5628667527108,tet,I4/mcm,0.000214,-2.900447009999999,-0.49281855049999906,0.49721401400000304,False,4.400587038196068,0.0,False,281.4849547225065,,
mp-1224901,GaFe3As,5,Ga1 Fe3 As1,4.055707783813326,4.058539,4.867666,90.0,90.0,59.97689679048431,hex_,P-6m2,6.2857401,-6.726472362,-0.104815924999998,0.07383283342857301,False,7.47251829387671,0.0,False,69.37238574850309,,
mp-1212637,GaFe3N,5,Ga1 Fe3 N1,3.728742,3.728742,3.728742,90.0,90.0,90.0,cubic,Pm-3m,4.8965578999999995,-7.579779386,-0.224491906499999,0.037878277,False,8.048103870369307,0.0,False,51.842627422300296,,
mp-1184032,GaFeO3,5,Ga1 Fe1 O3,3.784658,3.784658,3.784658,90.0,90.0,90.0,cubic,Pm-3m,4.9978076,-6.315184128,-1.0467840785,0.9412599324999991,False,5.316604208992787,0.0,False,54.210064246236215,,
mp-1184033,GaFeO3,5,Ga1 Fe1 O3,3.811283,3.811283,3.811283,90.0,90.0,90.0,cubic,Pm-3m,3.9359016000000002,-6.285739848,-1.0173397985,0.970704212499999,False,5.205957994132141,0.0,False,55.3622322858092,,
mp-649086,GaFeO3,40,Ga1 Fe1 O3,5.167031,8.863432,9.535878,90.0,90.0,90.0,ortho,Pna2_1,40.004998,-7.22065485375,-1.952254804249999,0.035789206749999004,False,5.279594518392152,0.17240000000000003,False,436.720592442893,,
mp-861324,GaFeO3,40,Ga1 Fe1 O3,5.164322,8.853184748307752,9.527997231888504,89.90989574468774,89.90724306866065,89.9149738485155,tri,P1,40.0073042,-2.575484098,2.6929159515,4.680959962499999,False,5.292871616330619,0.0,False,435.6250846546974,,
mp-868005,GaFeO3,40,Ga1 Fe1 O3,5.164622,8.859773214835975,9.531697297072595,89.96400447472574,89.8873282742936,89.93213572896067,tri,P1,40.0047923,-7.2197755185,-1.951375469,0.036668541999999006,False,5.286571144947953,2.1227,False,436.14425734795844,,
mp-1183980,GaGeO3,5,Ga1 Ge1 O3,3.754048,3.754048,3.754048,90.0,90.0,90.0,cubic,Pm-3m,0.005148199999999,-5.900624318,-1.401622939499999,0.703370443499997,False,5.97486459308068,0.0,False,52.90533441225176,,
mp-1246681,GaMoN3,20,Ga1 Mo1 N3,12.503124578107906,5.88570007403104,9.483435729714891,123.11594158027002,108.05698495589206,117.09233012114215,tri,P-1,0.0007172999999990001,-7.955962789499999,-0.178246915999999,0.306489437299999,False,4.003383937120838,1.0894,False,344.57439649979295,,
mp-1224813,GaNi3As,5,Ga1 Ni3 As1,3.9541863052320894,3.9541863052320894,4.881622,90.0,90.0,119.99746190278962,hex_,P-6m2,0.0010224,-12.687538016541684,-0.268446333041683,0.068055636604176,False,8.056779893859005,0.0,False,66.10284344908179,,
mp-1206991,GaNi3C,5,Ga1 Ni3 C1,3.775591,3.775591,3.775591,90.0,90.0,90.0,cubic,Pm-3m,0.002119,-5.994449438,-0.075015126999999,0.157710058499999,False,7.95427496167457,0.0,False,53.82137968893875,,
mp-1224811,GaNi3Sb,5,Ga1 Ni3 Sb1,4.1287230131769554,4.1287230131769554,4.964123,90.0,90.0,119.9922283238519,hex_,P-6m2,0.0008947,-14.7551096965,-0.136261064500001,0.16502519099999802,False,8.328033325667498,0.0,False,73.2889782229094,,
mp-1183983,GaNiO3,5,Ga1 Ni1 O3,3.671321,3.671321,3.671321,90.0,90.0,90.0,cubic,Pm-3m,0.8019234,-5.381211794,-0.6507886505,1.000703324333331,False,5.919929658044955,0.0,False,49.484259465906604,,
mp-1017563,GaPt3C,5,Ga1 Pt3 C1,4.206392,4.206392,4.206392,90.0,90.0,90.0,cubic,Pm-3m,0.0014611,-5.745444486,0.348587809,0.703917763499999,False,14.881146491395718,0.0,False,74.4267797077286,"{'voigt': 192.195, 'reuss': 192.195, 'vrh': 192.195}","{'voigt': -4.462, 'reuss': -129.978, 'vrh': -67.22}"
mp-1184206,GaSiO3,5,Ga1 Si1 O3,3.576533,3.576533,3.576533,90.0,90.0,90.0,cubic,Pm-3m,0.0074265,-6.705735318,-2.046275904500001,0.6737551248333331,False,5.29224411463588,0.0,False,45.74953767768221,,
mp-1184243,GaSnO3,5,Ga1 Sn1 O3,3.872114,3.872114,3.872114,90.0,90.0,90.0,cubic,Pm-3m,0.0007614,-5.8938217139999995,-1.517511535499999,0.575774915125002,False,6.762534269224833,0.0,False,58.05563839429101,,