mp_id,formula,sites,composition,a_edge (angstrom),b_edge (angstrom),c_edge (angstrom),alpha_ang (deg),beta_ang (deg),gamma_ang (deg),crystal_system,space_group,total_magnetisation (bohr),energy_per_atom (eV/atom),formation_energy (eV/atom),energy_above_hull (eV/atom),stable,density (g/cc),band_gap (eV),direct_bandgap,volume (cubic-angstrom),bulk_modulus (GPa),shear_modulus (GPa)
mp-1187483,TlCuO3,5,Tl1 Cu1 O3,3.842897,3.842897,3.842897,90.0,90.0,90.0,cubic,Pm-3m,0.0034613,-4.9195667059999995,-0.656654345666667,0.31950305712499905,False,9.244007629094678,0.0,False,56.751354716769065,,
mp-504821,TlFeBr3,20,Tl1 Fe1 Br3,3.984787,9.428482,15.382907,90.0,90.0,90.0,ortho,Pnma,15.9996798,-4.0713082775,-0.920841691166668,0.053698422166666,False,5.745686587527014,0.0,False,577.9433921229842,,
mp-568553,TlFeBr3,30,Tl1 Fe1 Br3,12.701406641049251,12.701406641049251,6.035159,90.0,90.0,120.00000333911652,hex_,P6_3cm,23.9902495,-3.998106716,-0.847640129666668,0.12689998366666602,False,5.907388322308163,0.0,False,843.1851984228681,,
mp-998159,TlFeF3,5,Tl1 Fe1 F3,4.254436,4.254436,4.254436,90.0,90.0,90.0,cubic,Pm-3m,3.999646,-5.384095289999999,-2.068909244166668,0.27134249849999903,False,6.8405099414663955,3.4393000000000002,False,77.00625173301604,,
mp-23415,TlFeI3,20,Tl1 Fe1 I3,4.009761,9.824469,16.127104,90.0,90.0,90.0,ortho,Pnma,16.0046212,-3.493837328,-0.41113109366666806,0.14724678800000002,False,6.701062410837013,0.0,False,635.3074683484213,,
mp-505819,TlFeO3,20,Tl1 Fe1 O3,5.402632030264508,5.545733000208178,7.929211044296274,90.00021175506522,90.01210025647346,89.99902657089129,ortho,Pnma,4.38e-05,-6.4935586285,-1.356483360166667,0.047280969999999006,False,8.617568623575883,0.7036999999999991,True,237.57148540071753,,
mp-1187481,TlGaO3,5,Tl1 Ga1 O3,3.908875,3.908875,3.908875,90.0,90.0,90.0,cubic,Pm-3m,0.1454337,-5.303302328,-1.254612097166667,0.43010489099999805,False,8.955514512450666,0.0,False,59.724888506857425,,
mp-756909,TlGaO3,20,Tl1 Ga1 O3,5.352391,5.498305,7.87435,90.0,90.0,90.0,ortho,Pnma,2.6900000000000003e-05,-5.663815099,-1.6151248681666681,0.06959211999999801,False,9.232397773668987,0.932299999999999,True,231.7348619025549,,
mp-998153,TlGeBr3,5,Tl1 Ge1 Br3,5.560484490478145,5.560484490478145,5.551330212903751,89.10866833578613,89.10866833578613,89.29557562094236,mono,Cm,3.46e-05,-3.379834651999999,-0.998766736666667,0.027999737999999,False,5.000708812528363,0.755599999999999,True,171.58750587347944,,
mp-998746,TlGeBr3,20,Tl1 Ge1 Br3,4.18124614,9.50260894,15.54896534,90.0,90.0,90.0,ortho,Pnma,0.0,-3.407834389999999,-1.026766474666667,0.0,True,5.555550922476075,2.256599999999999,False,617.8031051932752,,
mp-998743,TlGeCl3,10,Tl1 Ge1 Cl3,7.195688,5.743545,8.347123341651184,70.25346803138679,90.0,90.0,mono,P2_1/m,6.59e-05,-3.792086485999999,-1.284064495666668,0.0,True,3.9214048343885732,3.3207,False,324.69041758205674,,
mp-998744,TlGeCl3,5,Tl1 Ge1 Cl3,5.32810370899,5.32810370899,5.321929695849524,89.22621218414685,89.22621218414685,89.16190864111341,mono,Cm,0.0002251,-3.7593213800000003,-1.251299389666668,0.032765106000001,False,4.214938328785889,1.3779,True,151.03928858108335,,
mp-998711,TlGeF3,10,Tl1 Ge1 F3,4.781594698783026,5.84325105,7.1562610620967995,90.0,105.4347729678337,90.0,mono,P2_1/m,0.0,-17.420054585,-2.135605427499999,0.05515826299999901,False,5.755576338123737,3.3593,False,192.73509778140414,,
mp-998712,TlGeF3,5,Tl1 Ge1 F3,4.720373,4.731781002963366,4.859761236691983,101.85564663283834,93.83098950738827,90.37063819003056,tri,P1,0.0004676,-17.447224968999997,-2.162775811499995,0.027987879000001003,False,5.233987064051521,3.1344,True,105.97098872631973,,
mp-29288,TlGeI3,20,Tl1 Ge1 I3,4.454665,10.410241,16.567181,90.0,90.0,90.0,ortho,Pnma,0.0004618,-2.999773986,-0.686466422666667,0.016987145333331,False,5.686391015996473,1.9161000000000001,False,768.288708546055,,
mp-1187533,TlGeO3,5,Tl1 Ge1 O3,3.862735,3.862735,3.862735,90.0,90.0,90.0,cubic,Pm-3m,0.0013357,-5.733962968,-1.3662863706666681,0.357614411562501,False,9.364324257859888,0.0,False,57.634793859463905,,
mp-1068746,TlHPd3,5,Tl1 H1 Pd3,4.09795544,4.09795544,4.09795544,90.0,90.0,90.0,cubic,Pm-3m,3e-07,-25.377853564,-0.27469800174999903,0.0,True,12.659545266679366,0.0,False,68.81794424742806,,
mp-1105094,TlHgCl3,20,Tl1 Hg1 Cl3,4.36965245,9.24800615,14.07342645,90.0,90.0,90.0,ortho,Pnma,0.0,-2.787549608,-1.14219878116667,0.0,True,5.971967871645926,2.6710000000000003,False,568.7152231315773,,
mp-998710,TlHgF3,5,Tl1 Hg1 F3,4.526533263964605,4.519329777392354,4.540155456668864,89.71822329576706,88.13129338213577,89.59889529654022,tri,P1,0.0,-24.070719826,-1.687104880000001,0.014525399499998001,False,8.26413589863769,1.8050000000000002,False,92.82479948765523,,
mp-998758,TlHgF3,40,Tl1 Hg1 F3,6.20059644,8.82826901,13.07913115,90.0,90.0,90.0,ortho,Pbam,0.0,-24.0852452255,-1.7016302795,0.0,True,8.571632394741744,2.3394,True,715.9586154911296,,
mp-1187530,TlHgO3,5,Tl1 Hg1 O3,4.26104,4.26104,4.26104,90.0,90.0,90.0,cubic,Pm-3m,0.0003369,-3.704547296,-0.19954186216666903,0.6046997844999981,False,9.722392326750954,0.0,False,77.36541033597288,,
mp-22981,TlIO3,5,Tl1 I1 O3,4.5042186482558,4.504218742373265,4.504218410273846,88.7770587720396,88.77706450994337,88.77707259576104,trig,R3m,0.0,-4.7167628839999995,-0.968889334666667,0.0,True,6.896840909564332,2.763299999999999,False,91.31995051891965,,
mp-546200,TlIO3,5,Tl1 I1 O3,4.249667,4.249667,4.249667,90.0,90.0,90.0,cubic,Pm-3m,0.0006661,-4.47276803,-0.7248944806666681,0.243994853999999,False,8.206371515297834,0.0,False,76.7475819762978,"{'voigt': 111.81, 'reuss': 111.81, 'vrh': 111.81}","{'voigt': 58.435, 'reuss': 58.211, 'vrh': 58.323}"
mp-998713,TlInCl3,10,Tl1 In1 Cl3,7.689756,7.753678670952066,8.029580387378223,62.56501892613121,62.14230842838964,60.82755940674646,tri,P1,2.2800000000000005e-05,-3.509481564,-1.374230396000001,0.007009539499998001,False,4.011110588225817,1.559699999999999,False,352.35104482949873,,
mp-998732,TlInCl3,5,Tl1 In1 Cl3,5.417827305628152,5.417827305628152,5.411900095952714,89.96436036059107,89.96436036059107,90.05411043822996,mono,Cm,0.002071,-3.4493341479999993,-1.3140829800000011,0.067156955499999,False,4.4484680882083,0.0,False,158.854574053747,,
mp-557704,TlNO3,45,Tl1 N1 O3,10.273825482515042,10.273824751137223,7.25596693,90.0,90.0,120.00000116002556,trig,P3_1,0.1845773,-6.093866193333333,-0.983139618000001,0.004367245666667001,False,6.002281110434478,2.8695,False,663.2698541743425,,
mp-5915,TlNO3,40,Tl1 N1 O3,6.18047927,7.9133222100000005,12.19729243,90.0,90.0,90.0,ortho,Pnma,0.0,-6.098233439,-0.9875068636666691,0.0,True,5.932115907138609,2.8457,False,596.5466891150119,"{'voigt': 21.686, 'reuss': 21.629, 'vrh': 21.657}","{'voigt': 8.919, 'reuss': 7.662, 'vrh': 8.29}"
mp-662551,TlNO3,40,Tl1 N1 O3,7.712155,8.865203,10.549604,90.0,90.0,90.0,ortho,Pnma,6e-07,-5.4150217195,-0.30429514416666803,0.6832117195,False,4.906292946842693,0.0,False,721.2745227794272,,
mp-1205652,TlNiCl3,10,Tl1 Ni1 Cl3,6.860764899104289,6.8607643754450125,5.861284460000094,89.99999486912613,89.99998601453959,120.00013661728227,hex_,P6_3/mmc,4.0,-3.8872893239999993,-1.147845568666667,0.004469158999999,False,5.135113879418603,0.5372,False,238.9284548899522,,
mp-998761,TlNiF3,5,Tl1 Ni1 F3,4.08734836,4.08734836,4.08737585,90.0,90.0,90.0,cubic,Pm-3m,2.0000013,-17.017469668,-2.111072594500001,0.0008278950000040001,False,7.7833897188661165,3.4347,False,68.28540381625542,,
mp-1097917,TlNiO3,5,Tl1 Ni1 O3,3.786234374528471,3.7854173516733924,3.7980313656157447,89.81183947958507,89.80722818672598,90.22609065198122,mono,Cm,0.862486,-5.27181955,-0.672721187666667,0.365980831666666,False,9.489480951021271,0.0,False,54.43417050466772,,
mp-1178989,TlNiO3,20,Tl1 Ni1 O3,5.457501,5.327588,9.359486989668236,55.267114136251486,90.0,90.0,mono,P2_1/c,3.9995118,-5.5623652445000005,-0.9632668821666671,0.075435137166667,False,9.238944403214674,0.0965,False,223.64114407224048,,
mp-1403003,TlNiO3,5,Tl1 Ni1 O3,3.7858259632497635,3.7858259632497635,3.7980311388931502,89.80953028940853,89.80953028940853,90.22610265354993,ortho,Amm2,0.8627952,-5.271887158,-0.672788795666667,0.365913223666666,False,9.489480901416941,0.0,False,54.434170789211265,,
mp-18001,TlNiO3,20,Tl1 Ni1 O3,5.327862,5.455579,7.747435,90.0,90.0,90.0,ortho,Pnma,4.0075394,-5.563698480499999,-0.964600118166667,0.07410190116666701,False,9.175342851312838,0.0,False,225.19137756897152,,
mp-998781,TlNiO3,5,Tl1 Ni1 O3,3.782724,3.913127,3.934731883501721,81.977395937686,90.0,90.0,mono,Pm,0.9862884999999991,-5.33315619,-0.734057827666668,0.304644191666666,False,8.956568751415498,0.0,False,57.6729815206356,,
mp-998845,TlNiO3,10,Tl1 Ni1 O3,5.3774895465137815,5.3774895465137815,5.377489530976792,59.744069271250424,59.744069271250424,59.74407029713407,trig,R3c,2.0017222,-5.535411979,-0.9363136166666671,0.102388402666666,False,9.450434062552635,0.0,False,109.31815844005023,,
mp-27144,TlPO3,40,Tl1 P1 O3,7.58522238,7.58522238,11.10122861,90.0,90.0,90.0,tet,P-42_1c,0.0,-6.783894437499998,-2.257728706095238,0.0,True,5.89335611416675,3.6726,True,638.7158327617263,,
mp-556932,TlPO3,120,Tl1 P1 O3,11.09322,11.260694,16.272151,90.0,90.0,90.0,ortho,Pbcn,0.0,-6.771446867750001,-2.24528113634524,0.012447569749997,False,5.55550921758248,3.725,True,2032.6740776389734,,
mp-8249,TlPS3,10,Tl1 P1 S3,6.980750494023991,6.999774902322825,6.999774610679462,70.36205725139406,60.08985662095192,60.08986157179078,ortho,Immm,0.0,-4.665118756000001,-0.624713887095239,0.0,True,4.313946314477194,1.7362000000000002,False,255.24432221846365,"{'voigt': 11.573, 'reuss': 9.933, 'vrh': 10.753}","{'voigt': 5.681, 'reuss': 4.413, 'vrh': 5.047}"
mp-676598,TlPbCl3,40,Tl1 Pb1 Cl3,12.10245801471982,11.6858772729505,11.573262887376101,62.70674611646349,59.101921434628835,58.19133244890769,ortho,Fmm2,0.003436,-3.76610718525,-1.440161351916668,0.052488018249998006,False,5.966137203314032,2.6014,True,1153.259999340162,,
mp-27552,TlPbI3,10,Tl1 Pb1 I3,8.071428601821738,8.071428601821738,12.008534,90.0,90.0,146.16351163306206,ortho,Cmcm,0.0008087,-3.019440088,-0.8882086816666671,0.011369082999998,False,6.040287862083844,2.1427,True,435.6215032572197,,
mp-998786,TlPdF3,5,Tl1 Pd1 F3,4.271329549859519,4.271401243240745,4.27220351660318,89.54619824989645,89.95402998728879,89.78202819132416,cubic,Pm-3m,2.11e-05,-18.69623311,-1.594088746499997,0.0,True,7.835930470661132,0.0,False,77.94145138407865,,
mp-1179620,TlSbO3,10,Tl1 Sb1 O3,11.992352492564,6.1319593752047155,7.211124679052637,62.32626270155345,143.11063436504972,99.62165617154463,tri,P-1,0.0006366,-5.222655056,-0.9537837816666681,0.758883665999996,False,4.774480946960252,2.006799999999999,False,260.24884551350834,,
mp-30058,TlSbO3,10,Tl1 Sb1 O3,7.8729140405716915,7.872914718416886,7.872913968752426,39.59483374314661,39.594833006499975,39.594835440372506,trig,R-3,0.0,-5.980807672999998,-1.711936398666666,0.000731048999997,False,6.962178239709538,2.4362,True,178.47189652307534,,
mp-557787,TlSbO3,20,Tl1 Sb1 O3,5.33070696,5.330706615763118,14.72638829,90.0,90.0,120.00000213616418,trig,P-31c,0.0,-5.981538721999999,-1.712667447666667,0.0,True,6.857226771669321,2.436499999999999,True,362.4069017248385,,
mp-561465,TlSbO3,20,Tl1 Sb1 O3,5.4030414546514445,5.4030414546514445,16.243782,90.0,90.0,119.99999332228509,hex_,P6_322,0.0001021,-5.8467713965,-1.577900122166668,0.134767325499995,False,6.051326127328891,2.1502,False,410.6713564027069,,
mp-1187529,TlSiO3,5,Tl1 Si1 O3,3.704802,3.704802,3.704802,90.0,90.0,90.0,cubic,Pm-3m,0.0012686,-6.38847278,-1.860338147666668,0.5353082440000051,False,9.158742718662724,0.0,False,50.85047420789469,,
mp-676130,TlSnF3,40,Tl1 Sn1 F3,10.340004750687989,10.340004750687989,8.183366199380444,72.42183243383997,72.42183243383997,81.39369260944503,mono,Cc,0.0,-19.6767424935,-2.217452095999999,0.0,True,6.363346285464172,2.8207,False,793.48417092851,,
mp-1205533,TlSnI3,10,Tl1 Sn1 I3,7.890112574887488,7.890112574887488,11.79080057,90.0,90.0,146.0255723397023,ortho,Cmcm,0.0,-2.996075997000003,-0.8054596336666701,0.0,True,5.698343985692575,1.8624,False,410.1888338873855,,
mp-1187623,TlTcO3,5,Tl1 Tc1 O3,3.9907459999999992,3.9907459999999992,3.9907459999999992,90.0,90.0,90.0,cubic,Pm-3m,0.0003283,-7.017188586,-1.501989770666668,0.035979122291664,False,9.154360351271718,0.0,False,63.556834845711684,,
mp-1206817,TlVCl3,10,Tl1 V1 Cl3,6.9221253961104265,6.922121014776771,6.15463623,90.0,90.0,119.99997271705652,hex_,P6_3/mmc,5.999999,-4.865086013999999,-1.464888380666667,0.0033166550000000004,False,4.70323154496746,0.27340000000000003,False,255.39464681426662,,
mp-22330,TlVO3,20,Tl1 V1 O3,5.15348249,5.77053724,11.16164076,90.0,90.0,90.0,ortho,Pbcm,0.0,-7.2685180305,-2.008665790166668,0.006314270642858001,False,6.069729515437828,2.9763,False,331.92892040229884,,
mp-1187621,TlWO3,5,Tl1 W1 O3,4.077202,4.077202,4.077202,90.0,90.0,90.0,cubic,Pm-3m,1.0009275,-7.677042439999999,-1.642345367666667,0.15775196400000202,False,10.687336371785316,0.0,False,67.77767792105595,,
mp-998745,TlZnF3,5,Tl1 Zn1 F3,4.1244615563343885,4.11502468078564,4.117341669414059,89.97427477847381,89.96413590151036,89.98168307102594,cubic,Pm-3m,0.0,-16.621639372,-2.3294652095,0.0,True,7.7652972579047095,3.9179,False,69.88057354988399,,
mp-574239,Tm3AlC,5,Tm3 Al1 C1,5.301577,5.301577,5.301577,90.0,90.0,90.0,cubic,Pm-3m,6.440000000000002e-05,-3.824309453999999,1.460039698499995,1.824206665499999,False,6.082236810454217,0.0,False,149.00993333609298,"{'voigt': 39.315, 'reuss': 39.315, 'vrh': 39.315}","{'voigt': 26.065, 'reuss': 7.869, 'vrh': 16.967}"
mp-1018641,Tm3AlN,5,Tm3 Al1 N1,4.6573477400000005,4.6573477400000005,4.6573477400000005,90.0,90.0,90.0,cubic,Pm-3m,2.7700000000000002e-05,-25.369733892,-1.124935117750001,0.0,True,9.004257141591417,0.0,False,101.02200807164854,"{'voigt': 96.02, 'reuss': 96.02, 'vrh': 96.02}","{'voigt': 73.086, 'reuss': 72.57, 'vrh': 72.828}"
mp-10351,Tm3GaC,5,Tm3 Ga1 C1,5.225463,5.225463,5.225463,90.0,90.0,90.0,cubic,Pm-3m,0.001073999999999,-3.947677525999999,1.193175664999995,1.642900948999997,False,6.849329248051409,0.0,False,142.68368955345835,,
mp-21292,Tm3InC,5,Tm3 In1 C1,5.506619,5.506619,5.506619,90.0,90.0,90.0,cubic,Pm-3m,5.3200000000000006e-05,-3.463179911999999,1.623888823166662,1.98834972645,False,6.301307211785533,0.0,False,166.97639742414253,,
mp-19847,Tm3InN,5,Tm3 In1 N1,4.70132412,4.70132412,4.70132412,90.0,90.0,90.0,cubic,Pm-3m,7.4e-06,-28.638137438,-1.224040253750001,0.0,True,10.157599361904483,0.0,False,103.91077415616378,,
mp-22542,Tm3PbC,5,Tm3 Pb1 C1,4.80484245,4.80484245,4.80484245,90.0,90.0,90.0,cubic,Pm-3m,1e-06,-5.836256006000002,-0.558492605500006,0.0,True,10.868165338017098,0.0,False,110.92704792778899,,
mp-21888,Tm3SnC,5,Tm3 Sn1 C1,5.523951,5.523951,5.523951,90.0,90.0,90.0,cubic,Pm-3m,0.0030935,-3.826491924,1.510656433499996,2.041465625866665,False,6.2805217964646864,0.0,False,168.5580322211173,,
mp-22556,Tm3TlC,5,Tm3 Tl1 C1,5.532385,5.532385,5.532385,90.0,90.0,90.0,cubic,Pm-3m,9.740000000000002e-05,-3.367118602,1.6424098078333271,1.953503752199998,False,7.091993122080632,0.0,False,169.33127772071913,,
mp-1101265,TmAlO3,10,Tm1 Al1 O3,3.431286135403167,3.431286135403167,11.458344,90.0,90.0,120.00000261074157,hex_,P6_3/mmc,4e-07,-8.33311484,-3.718722775000002,0.07630096770000101,False,6.9334499102895535,3.5534,False,116.83322033894945,,
mp-756281,TmAlO3,20,Tm1 Al1 O3,5.09801477,5.3139368,7.30343534,90.0,90.0,90.0,ortho,Pnma,0.0,-8.390336423499999,-3.775944358500001,0.019079384200002002,False,8.188437955149604,6.078899999999999,True,197.8539217161666,,
mp-17620,TmBO3,30,Tm1 B1 O3,6.563713941824248,6.563713941824248,8.686243,90.0,90.0,119.99999941361295,hex_,P6_3/mcm,0.0021936,-8.401931864,-3.200776610833335,0.318168113600002,False,7.001389952448992,2.3645,False,324.08721585354914,,
mp-760484,TmBO3,10,Tm1 B1 O3,3.883822941721726,3.883822941721726,8.470664,90.0,90.0,114.4048008854952,ortho,Ama2,0.0,-8.69007493,-3.4889196768333353,0.030025047600002002,False,6.5003624938412585,4.5062,False,116.35561242130827,,
mp-10134,TmBPd3,5,Tm1 B1 Pd3,4.297151,4.297151,4.297151,90.0,90.0,90.0,cubic,Pm-3m,8.740000000000002e-05,-22.942918883545456,-0.673166220045456,0.11403531081818401,False,10.44268872737274,0.0,False,79.34907065360815,"{'voigt': 147.36, 'reuss': 147.36, 'vrh': 147.36}","{'voigt': 32.23, 'reuss': 14.287, 'vrh': 23.258}"
mp-5438,TmBRh3,5,Tm1 B1 Rh3,4.15099888,4.15099888,4.15099888,90.0,90.0,90.0,cubic,Pm-3m,0.0025981,-7.473258072000002,-0.822294699833335,0.0,True,11.340227688000908,0.0,False,71.52499705552428,"{'voigt': 186.37, 'reuss': 186.37, 'vrh': 186.37}","{'voigt': 92.827, 'reuss': 86.505, 'vrh': 89.666}"
mp-972395,TmBeO3,5,Tm1 Be1 O3,3.536677,3.536677,3.536677,90.0,90.0,90.0,cubic,Pm-3m,0.9608414999999991,-7.497920196,-2.8847607240000013,0.40141804874999903,False,8.481347431994259,0.0,False,44.23705371244032,,
mp-754323,TmBiO3,10,Tm1 Bi1 O3,6.105165299358896,6.105165299358896,6.1051652282794935,58.509686063122686,58.509686063122686,58.50969274637567,trig,R3c,3.65e-05,-7.479163479999999,-2.835879719000002,0.030020340250001002,False,9.10093457425762,3.1128,False,155.422468802458,,
mp-755216,TmBiO3,10,Tm1 Bi1 O3,6.0907481695562655,6.0907481695562655,6.0907472226151365,58.47151464353198,58.47151464353198,58.471518106321305,trig,R-3,0.0003227,-7.455337050999999,-2.812053290000001,0.053846769250002,False,9.174080653033887,2.441799999999999,True,154.18326625164255,,
mp-1216578,TmBiTe3,5,Tm1 Bi1 Te3,10.971052912155741,10.971052912155741,10.971052972693732,23.052056765316486,23.052056765316486,23.052058703672753,trig,R3m,0.003074899999999,-34.90564982074999,-0.9306508277499971,0.023780685750004003,False,7.108305291875725,1.1145,False,177.70710128082487,,
mp-561954,TmCoO3,20,Tm1 Co1 O3,5.136062,5.708766,7.360924,90.0,90.0,90.0,ortho,Pnma,3e-07,-7.929291277999999,-2.637331035000001,0.022681563464287003,False,8.48988507631344,1.188599999999999,False,215.82653245179552,,
mp-1187577,TmCrO3,5,Tm1 Cr1 O3,3.833663,3.833663,3.833663,90.0,90.0,90.0,cubic,Pm-3m,2.999918199999999,-8.644344738000001,-2.848458345000002,0.39895016849999704,False,7.925818869102425,1.9288999999999992,False,56.34323775911637,,
mp-777295,TmCrO3,20,Tm1 Cr1 O3,5.16618224,5.50964451,7.48369507,90.0,90.0,90.0,ortho,Pnma,11.9999998,-9.043294906499998,-3.2474085135,0.0,True,8.385646496521579,2.6809000000000003,False,213.01460640525085,,
mp-20651,TmFeO3,20,Tm1 Fe1 O3,5.272515999999999,5.611822,7.672662,90.0,90.0,90.0,ortho,Pnma,20.0012483,-8.433557634,-2.874276493000002,0.024305635250000002,False,7.980858847597483,1.6368,False,227.02195562690426,,
mp-558400,TmFeO3,30,Tm1 Fe1 O3,6.009661294779001,6.009671987021604,11.616928750008453,89.99988474607207,90.00013349526738,119.99918964747502,hex_,P6_3cm,30.0246847,-8.448114512666667,-2.888833371666667,0.009748756583332002,False,7.479670757668568,0.0,False,363.35092316187996,,
mp-1207932,TmGa3Os,15,Tm1 Ga3 Os1,6.34071476,6.34071476,6.34071476,90.0,90.0,90.0,cubic,Pm-3m,9.3e-06,-25.043958806,-0.557037808000003,0.0,True,11.10602729482983,0.0,False,254.92630433850607,,
mp-17424,TmGa3Ru,15,Tm1 Ga3 Ru1,6.3337215,6.3337215,6.3337215,90.0,90.0,90.0,cubic,Pm-3m,3.399999999999998e-06,-5.147045221999999,-0.578806804499999,0.0,True,9.394766533873728,0.0,False,254.0837492887783,,
mp-1101269,TmGaO3,10,Tm1 Ga1 O3,3.494478241650676,3.494478241650676,11.703904,90.0,90.0,120.00000457506923,hex_,P6_3/mmc,0.0008841,-7.652406986,-3.181510882500001,0.028288575600001004,False,7.691538030930057,2.4668,False,123.77303604118883,,
mp-754578,TmGaO3,20,Tm1 Ga1 O3,5.240913,5.57066,7.599725,90.0,90.0,90.0,ortho,Pnma,0.0006012999999990001,-7.6298202355,-3.158924132000001,0.05087532610000001,False,8.581392196401769,3.9298,True,221.87658881589454,,
mp-768469,TmGaO3,30,Tm1 Ga1 O3,5.95572878486765,5.955732628590875,11.595306030001415,90.00002537589339,90.00003117189208,120.0000325116802,hex_,P6_3cm,0.0,-7.674284366666668,-3.20338826316667,0.0064111949333330006,False,8.018214693689663,2.9311,False,356.19089171946547,,