mp_id,formula,sites,composition,a_edge (angstrom),b_edge (angstrom),c_edge (angstrom),alpha_ang (deg),beta_ang (deg),gamma_ang (deg),crystal_system,space_group,total_magnetisation (bohr),energy_per_atom (eV/atom),formation_energy (eV/atom),energy_above_hull (eV/atom),stable,density (g/cc),band_gap (eV),direct_bandgap,volume (cubic-angstrom),bulk_modulus (GPa),shear_modulus (GPa)
mp-10608,Y3SnC,5,Y3 Sn1 C1,4.88691003,4.88691003,4.8869276,90.0,90.0,90.0,cubic,Pm-3m,1.5200000000000002e-05,-7.1852523280000025,-0.632149958500001,0.0,True,5.654759869195107,0.0,False,116.70906562829443,"{'voigt': 81.995, 'reuss': 81.995, 'vrh': 81.995}","{'voigt': 62.931, 'reuss': 62.027, 'vrh': 62.479}"
mp-9960,Y3TlC,5,Y3 Tl1 C1,4.90973176,4.90973176,4.90973176,90.0,90.0,90.0,cubic,Pm-3m,1.38e-05,-6.687476899999998,-0.46199447816666606,0.0,True,6.778338013071455,0.0,False,118.35137178961192,"{'voigt': 77.491, 'reuss': 77.491, 'vrh': 77.491}","{'voigt': 64.107, 'reuss': 63.803, 'vrh': 63.955}"
mp-1094009,YAgO3,5,Y1 Ag1 O3,4.426715,4.426715,4.426715,90.0,90.0,90.0,cubic,Pm-3m,2.0007623,-6.369843766000001,-1.5306613273333332,0.633616180708331,False,4.685614886915885,0.0,False,86.74504699043106,,
mp-1369676,YAgO3,30,Y1 Ag1 O3,6.428563080155987,6.428563841207106,11.477625730000002,90.00000099024494,89.99999844285715,120.00001544424191,hex_,P6_3cm,2.7e-06,-6.992948920333334,-2.153766481666667,0.010511026374998001,False,5.936794741524685,0.0009999999999990002,True,410.7811382141837,,
mp-1369873,YAgO3,20,Y1 Ag1 O3,5.493739,6.027972,7.937536,90.0,90.0,90.0,ortho,Pnma,0.0009031,-6.923842615,-2.084660176333332,0.079617331708332,False,6.185094103225859,0.007200000000000001,False,262.8602745640324,,
mp-1418929,YAgO3,5,Y1 Ag1 O3,4.05442,4.05442,4.05442,90.0,90.0,90.0,cubic,Pm-3m,7.42e-05,-6.419932356000001,-1.5807499173333341,0.583527590708331,False,6.098528684371441,0.0,False,66.64785960361091,,
mp-1215933,YAl3Ag,5,Y1 Al3 Ag1,4.203734,4.185893,6.392425420083445,70.88833288058059,70.80368732910918,90.0,tet,I-4m2,0.0001712,-12.75727838753333,-0.384123768533329,0.004861144866683,False,4.628244711083616,0.0,False,99.64094875548548,,
mp-4054,YAl3Ni,20,Y1 Al3 Ni1,4.02710599,8.10956377,10.60833375,90.0,90.0,90.0,ortho,Pnma,8.8e-06,-5.295738009,-0.590546874999999,0.0,True,4.3816827518042825,0.0,False,346.44773625969634,"{'voigt': 96.571, 'reuss': 96.431, 'vrh': 96.501}","{'voigt': 61.372, 'reuss': 58.05, 'vrh': 59.711}"
mp-3792,YAlO3,20,Y1 Al1 O3,5.17603105,5.31735851,7.37249317,90.0,90.0,90.0,ortho,Pnma,0.0,-8.7319481845,-3.7122381155,0.018835838049996,False,5.36466564646124,5.5402000000000005,False,202.91174903140487,"{'voigt': 190.778, 'reuss': 189.342, 'vrh': 190.06}","{'voigt': 114.346, 'reuss': 109.259, 'vrh': 111.803}"
mp-756214,YAlO3,10,Y1 Al1 O3,5.246494706247687,5.246494706247687,5.246495449426884,60.848083318190675,60.848083318190675,60.84808277950672,trig,R-3c,1.5100000000000001e-05,-8.704976542999999,-3.685266473999999,0.045807479549997004,False,5.229987875920269,4.9586000000000015,False,104.06847158327305,,
mp-756705,YAlO3,30,Y1 Al1 O3,6.738056422380121,6.738056422380121,10.118139,90.0,90.0,120.16636273898465,ortho,Cmcm,0.0012721,-8.690346495666667,-3.6706364266666682,0.060437526883330005,False,4.11122305652517,4.3247,True,397.1641799747765,,
mp-7964,YAlO3,10,Y1 Al1 O3,3.488568423634113,3.488568423634113,11.48382,90.0,90.0,120.00000803407112,hex_,P6_3/mmc,2.6e-06,-8.648558362,-3.628848293,0.102225660549997,False,4.496849927381268,3.4964999999999993,False,121.03513647008225,,
mp-1100874,YBO3,20,Y1 B1 O3,4.520379,7.9014449428276725,8.47554,90.0,90.0,124.89646246382699,ortho,Pnma,0.0009741999999990001,-9.092416328999999,-3.485943071833333,0.036316580666667,False,3.951592046989222,4.7951999999999995,True,248.2914312338085,,
mp-1100876,YBO3,10,Y1 B1 O3,3.9514272487617688,3.986749113952996,8.411535,90.0,90.0,111.71590228144113,ortho,Ama2,0.0007170999999990001,-9.052236671,-3.445763413833333,0.07649623866666701,False,3.984978548406962,4.4,False,123.10561187227881,,
mp-1216067,YBO3,10,Y1 B1 O3,4.562674617985924,3.5989765810032717,8.298747,90.0,90.0,66.77864571105937,ortho,Cmcm,0.0005457999999990001,-9.078990353,-3.472517095833333,0.049742556666666,False,3.917263092815851,4.2311,False,125.23366719974508,,
mp-29205,YBO3,30,Y1 B1 O3,6.542429819871621,6.542429819871621,8.82893208,90.0,90.0,120.08127124373081,ortho,Cmcm,0.0,-9.128732909666667,-3.5222596525,0.0,True,4.500537512836404,5.1696,False,327.0097545684276,,
mp-760457,YBO3,10,Y1 B1 O3,3.9676227455690642,3.9676227455690642,8.671747,90.0,90.0,117.3735266246241,ortho,Ama2,1.3e-06,-9.043673593,-3.437200335833333,0.08505931666666701,False,4.046782608745556,4.5981000000000005,False,121.2254944061883,,
mp-1018643,YBPd3,5,Y1 B1 Pd3,4.325036,4.325036,4.325036,90.0,90.0,90.0,cubic,Pm-3m,6.500000000000001e-05,-19.959546926181822,-0.651283728681823,0.090775072727275,False,8.599435522796034,0.0,False,80.90384834931565,"{'voigt': 142.867, 'reuss': 142.867, 'vrh': 142.867}","{'voigt': 29.295, 'reuss': 12.066, 'vrh': 20.681}"
mp-1018644,YBPt3,5,Y1 B1 Pt3,4.344528,4.344528,4.344528,90.0,90.0,90.0,cubic,Pm-3m,5.72e-05,-37.24537270655557,-0.8207515350555691,0.095610442222209,False,13.870500028013893,0.0,False,82.00263382948431,"{'voigt': 173.83, 'reuss': 173.83, 'vrh': 173.83}","{'voigt': 20.126, 'reuss': -19.279, 'vrh': 0.424}"
mp-29725,YBRh3,5,Y1 B1 Rh3,4.17882149,4.17882149,4.17882149,90.0,90.0,90.0,cubic,Pm-3m,0.0038927,-7.821756422000002,-0.765475045833333,0.0,True,9.294131987082128,0.0,False,72.97287522061936,"{'voigt': 181.021, 'reuss': 181.021, 'vrh': 181.021}","{'voigt': 88.598, 'reuss': 82.993, 'vrh': 85.796}"
mp-1358047,YBiO3,30,Y1 Bi1 O3,6.613613363623398,6.613613363623398,13.082135,90.0,90.0,119.99999363398865,hex_,P6_3cm,0.0082087,-7.726286742,-2.677684977000001,0.12011459187500001,False,6.9541570638333905,2.065,False,495.54932666808253,,
mp-1369528,YBiO3,20,Y1 Bi1 O3,5.887518,6.149466,8.667586,90.0,90.0,90.0,ortho,Pnma,0.0016562,-7.680666606,-2.632064841,0.16573472787500002,False,7.321032158828411,1.6856,True,313.81074651439235,,
mp-1406000,YBiO3,10,Y1 Bi1 O3,3.845436636851529,3.845436636851529,13.152414,90.0,90.0,120.00001095681995,hex_,P6_3/mmc,4.16e-05,-7.691130482,-2.6425287170000002,0.155270851875,False,6.819974598344834,2.295,False,168.4330736052438,,
mp-1424898,YBiO3,5,Y1 Bi1 O3,4.408542,4.408542,4.408542,90.0,90.0,90.0,cubic,Pm-3m,1.7400000000000003e-05,-6.747321852000001,-1.6987200870000012,1.099079481875,False,6.703400806382276,0.0,False,85.68108313135833,,
mp-754152,YBiO3,10,Y1 Bi1 O3,6.151314209866458,6.151314209866458,6.151314269330743,58.73187913951456,58.73187913951456,58.73188149529586,trig,R-3,0.0004015,-7.798726501,-2.750124736000001,0.047674832874999004,False,7.18768945681628,2.476099999999999,False,159.81620942451218,,
mp-768221,YBiO3,10,Y1 Bi1 O3,6.165866777909655,6.165866777909655,6.165866686580889,58.51184124983374,58.51184124983374,58.511833340410604,trig,R3c,0.0003144,-7.81337911,-2.764777345,0.033022223875001006,False,7.174372126701876,3.0748,False,160.11286607696232,,
mp-1215930,YBiTe3,5,Y1 Bi1 Te3,10.840093774501076,10.840093774501076,10.840093554031718,23.458629060048345,23.458629060048345,23.45862961896686,trig,R3m,0.006853799999999,-5.017752136,-1.051943438,0.027144715750001002,False,6.376598920494423,1.024699999999999,True,177.25846086848023,,
mp-1273178,YCoO3,20,Y1 Co1 O3,5.2771785239336,5.707340229514095,7.535437086027856,90.06302223779956,90.33811137677559,90.64618664683539,tri,P-1,5.9990223,-8.277534488499999,-2.5802562415,0.011655866589286001,False,5.731863777604832,0.34899999999999903,False,226.93867728566613,,
mp-1288734,YCoO3,20,Y1 Co1 O3,5.237282321311028,5.745943143208975,7.489235913847033,90.64402725876397,89.99110148277619,90.0999099902654,mono,P2_1/c,12.0000001,-8.273725645499999,-2.576447398499999,0.015464709589286002,False,5.772017766670035,0.1607,True,225.35994112535496,,
mp-1330514,YCoO3,30,Y1 Co1 O3,6.16575434858777,6.16575434858777,11.428332,90.0,90.0,120.00000374039894,hex_,P6_3cm,11.9996914,-8.266468037666668,-2.569189790666668,0.022722317422617003,False,5.185728067900504,0.007299999999999001,False,376.25813589890873,,
mp-1387356,YCoO3,10,Y1 Co1 O3,3.6308877867013454,3.6308877867013454,11.219736,90.0,90.0,119.9999961134229,hex_,P6_3/mmc,4.0105039,-8.182845361,-2.485567113999999,0.10634499408928501,False,5.0773306047464875,0.0,False,128.09699479242505,,
mp-1435972,YCoO3,5,Y1 Co1 O3,3.785831,3.785831,3.785831,90.0,90.0,90.0,cubic,Pm-3m,0.00033000000000000005,-8.058154953999999,-2.360876707,0.23103540108928602,False,5.993226885848512,0.8330000000000001,False,54.26048474581901,,
mp-22668,YCoO3,20,Y1 Co1 O3,5.1457858408779975,5.4300999880607925,7.366162013997965,89.99832555259731,90.00001075865262,89.99682045614037,ortho,Pnma,1e-07,-8.2884854835,-2.591207236500001,0.0007048715892850001,False,6.31980356692655,0.0,False,205.82626822115907,,
mp-1336975,YCrO3,30,Y1 Cr1 O3,6.086927758373021,6.086927758373021,12.012846,90.0,90.0,119.99999737373055,hex_,P6_3cm,17.9991696,-9.234290786333334,-3.033086389333334,0.157926261166666,False,4.882697318692063,1.3989,True,385.45425811357677,,
mp-1387900,YCrO3,10,Y1 Cr1 O3,3.4790880658832,3.4790880658832,11.8855569,90.0,90.0,120.00000809873293,hex_,P6_3/mmc,6.0000004,-9.174724609000002,-2.9735202120000013,0.21749243849999902,False,5.035358773894465,0.0,False,124.58936605980726,,
mp-18725,YCrO3,20,Y1 Cr1 O3,5.245435860022576,5.53958790000013,7.549855260033791,89.99998068245759,90.00033938814309,89.99999978737696,ortho,Pnma,12.0000009,-9.3922170475,-3.191012650500001,0.0,True,5.719311184536888,2.4831,False,219.38031951097574,,
mp-18770,YCrO3,5,Y1 Cr1 O3,3.853879,3.853879,3.853879,90.0,90.0,90.0,cubic,Pm-3m,2.999626799999999,-9.088909482000002,-2.8877050850000012,0.30330756549999904,False,5.480083491421764,1.7679,False,57.23928827956947,,
mp-1333124,YCuO3,30,Y1 Cu1 O3,6.182344407243914,6.18234395093734,11.029803830005322,89.99989963608762,89.99999925642364,119.99817989522583,hex_,P6_3cm,0.0,-7.509970871000002,-2.419534634000001,0.011914108806815002,False,5.470081203446913,0.005599999999999001,True,365.1007652871897,,
mp-1340758,YCuO3,20,Y1 Cu1 O3,5.262028,5.66639,7.494229,90.0,90.0,90.0,ortho,Pnma,0.0025272,-7.498518463000001,-2.408082226,0.023366516806816003,False,5.958386637879136,0.0,False,223.45319909981657,"{'voigt': 129.718, 'reuss': 108.184, 'vrh': 118.951}","{'voigt': 59.318, 'reuss': 53.215, 'vrh': 56.266}"
mp-1432347,YCuO3,5,Y1 Cu1 O3,3.7821540000000002,3.7821540000000002,3.7821540000000002,90.0,90.0,90.0,cubic,Pm-3m,0.0007474,-7.299427534,-2.208991297,0.222457445806816,False,6.15230194191815,0.0,False,54.10253626517338,,
mp-755109,YErO3,20,Y1 Er1 O3,5.682581,5.943749,8.37517,90.0,90.0,90.0,ortho,Pnma,0.0009774,-9.09208816,-3.907949494999999,0.097533514874999,False,7.141933728330594,4.544399999999999,True,282.87836115738855,,
mp-1275986,YFeO3,20,Y1 Fe1 O3,3.5436246756997005,12.160160595023292,6.129449404336045,75.40342710604354,90.00431811485693,81.6183093772799,hex_,P6_3/mmc,19.9999994,-8.786369046999999,-2.821769901999999,0.008711735874999,False,5.066710990725307,0.0,False,252.68252178655933,,
mp-1376289,YFeO3,30,Y1 Fe1 O3,6.100083197427992,6.1000802338276925,11.6853309100003,90.00000930749,89.99998998663989,119.99886440778639,hex_,P6_3cm,30.0089011,-8.781297638666668,-2.816698493666668,0.013783144208330001,False,5.099700507977772,1.2742,False,376.5719109281056,,
mp-1416093,YFeO3,5,Y1 Fe1 O3,3.883222,3.883222,3.883222,90.0,90.0,90.0,cubic,Pm-3m,4.9994461999999995,-8.454524802,-2.489925657,0.34055598087499905,False,5.465937800635578,0.6372999999999991,False,58.55670870199426,,
mp-20783,YFeO3,20,Y1 Fe1 O3,5.287706431660379,5.619751830086749,7.624140259419165,90.00052352079172,89.98426248044683,90.0001598766867,ortho,Pnma,20.0068319,-8.7832628685,-2.818663723499999,0.011817914374999001,False,5.651009028381979,1.5605,True,226.55587769724715,,
mp-1215945,YGa3Cu,5,Y1 Ga3 Cu1,6.050809338610812,6.050809338610812,6.050809338610812,140.89166206980457,140.89166206980457,56.501906318581234,tet,I-4m2,0.0,-4.396055404,-0.4575381565,0.013742773100000001,False,6.867173259124356,0.0,False,87.4429006031322,,
mp-1104503,YGa3Ru,15,Y1 Ga3 Ru1,6.3892472,6.3892472,6.3892472,90.0,90.0,90.0,cubic,Pm-3m,6e-07,-5.553980832,-0.580424410499999,0.0,True,7.623454425929891,0.0,False,260.82491464872265,,
mp-17853,YGaO3,30,Y1 Ga1 O3,6.133622459676664,6.133622459676664,11.731544,90.0,90.0,120.00000495823849,hex_,P6_3cm,0.004017,-8.002057152333334,-3.125843044833334,0.026932728216666,False,5.386016237384248,2.9043,True,382.2256825292596,,
mp-768889,YHoO3,30,Y1 Ho1 O3,6.425064307490238,6.425064307490238,12.76526,90.0,90.0,120.00000316625473,hex_,P6_3cm,0.0011362,-9.091635003333332,-3.901504207333332,0.089211476416666,False,6.589520282530561,3.0775,False,456.3680585577812,,
mp-504607,YInO3,30,Y1 In1 O3,6.290522379001798,6.29052234366749,12.285825550000029,90.00000510511607,89.99999217621102,120.00012758914663,hex_,P6_3cm,0.0,-7.791829652000001,-2.969400000333334,0.0045696548749970005,False,5.956810290032705,2.051699999999999,False,421.0249555696462,,
mp-1101170,YLuO3,20,Y1 Lu1 O3,5.604801,5.890575,8.218506,90.0,90.0,90.0,ortho,Pnma,0.0098952,-9.13767567,-3.9627432763333332,0.076084470499997,False,7.6343732190994285,4.7425999999999995,True,271.33809018975455,,
mp-754226,YLuO3,10,Y1 Lu1 O3,3.6670921472116023,3.6670921472116023,12.750389,90.0,90.0,120.00000265590302,hex_,P6_3/mmc,0.010525999999999001,-9.140512511999999,-3.965580118333333,0.07324762849999901,False,6.975196624306344,3.3403,True,148.49016885400343,,
mp-1232166,YMgS3,20,Y1 Mg1 S3,7.253632357481389,12.000859,7.268454538392395,90.0,126.07413653440702,90.0,mono,C2/m,0.019712999999999002,-5.6131151395,-1.502187095999999,0.35517695399999905,False,2.719813565015993,0.0,False,511.39769162455053,,
mp-1237973,YMgS3,10,Y1 Mg1 S3,6.924409257420447,6.924409257420447,6.788429893530094,73.71084849576253,73.71084849576253,111.76076143843706,mono,C2/m,1.999990299999999,-5.654397912,-1.543469868499999,0.31389418149999904,False,2.656565938697763,0.1962,False,261.7865339868308,,
mp-1232305,YMgSe3,10,Y1 Mg1 Se3,7.282711997448341,7.282711997448341,6.732510433108885,73.02566901674166,73.02566901674166,110.40413021740838,mono,C2/m,0.00044019999999900006,-5.151392949,-1.42593375940625,0.29001039249999905,False,4.043168126265262,0.0,False,287.56634160607763,,
mp-1232338,YMgSe3,30,Y1 Mg1 Se3,6.9139479999999995,6.913948339096915,19.304446,90.0,90.0,119.99999837759337,trig,R-3,2.6952541,-5.220258454,-1.49479926440625,0.22114488749999803,False,4.364564213570515,0.0,False,799.1719285192389,,
mp-1434307,YMnO3,5,Y1 Mn1 O3,3.872255,3.872255,3.872255,90.0,90.0,90.0,cubic,Pm-3m,3.9989824,-8.80542923,-2.7024312685862073,0.325051983333333,False,5.486572953630488,0.0,False,58.06198077710698,,
mp-19227,YMnO3,10,Y1 Mn1 O3,3.58206689,3.58206612239232,11.25355968,90.0,90.0,119.99999776155072,hex_,P6_3/mmc,7.9999994999999995,-9.110961161666667,-3.007963200252874,0.019520051666665,False,5.094893988485083,0.0367,True,125.05119599578148,,
mp-19385,YMnO3,30,Y1 Mn1 O3,6.137989786986564,6.137990097872094,11.440423080000002,90.00000086689968,89.99999816554612,119.99938510118515,hex_,P6_3cm,24.0000002,-9.130481213333333,-3.027483251919541,0.0,True,5.120548727866363,0.0,False,373.2740106140465,,
mp-20699,YMnO3,20,Y1 Mn1 O3,5.336231,5.889455,7.49551,90.0,90.0,90.0,ortho,Pnma,15.9988545,-9.1073859565,-3.004387995086206,0.023095256833332002,False,5.409312604726616,0.405199999999999,True,235.56508314016247,,
mp-989604,YMoN3,20,Y1 Mo1 N3,6.210994477976391,7.217226451515367,7.217225407285337,98.60305958132219,105.71737084189104,74.28262270239895,mono,C2/c,0.0,-9.5667560595,-1.0928410905,0.0,True,5.043707675332528,1.9089,False,298.7641608959705,,
mp-1371109,YMoO3,30,Y1 Mo1 O3,6.290547678076369,6.290547678076369,12.517474,90.0,90.0,119.99999661423819,hex_,P6_3cm,18.0012229,-9.178302571,-2.7385776460000013,0.17943056359376,False,5.408056637689461,0.0,False,428.9673729625228,,
mp-1379411,YMoO3,20,Y1 Mo1 O3,5.40189403,5.81564474,7.82605709,90.0,90.0,90.0,ortho,Pnma,11.9999997,-9.328163984,-2.8884390590000013,0.029569150593760002,False,6.290530791174836,2.2163,True,245.85946991487663,,
mp-1445377,YMoO3,10,Y1 Mo1 O3,3.6323182921766364,3.6323182921766364,12.629857,90.0,90.0,120.00000532173918,hex_,P6_3/mmc,5.9916488,-9.129895719999999,-2.6901707950000002,0.22783741459376103,False,5.358551394200571,0.0,False,144.31013645546886,,
mp-1503976,YMoO3,5,Y1 Mo1 O3,4.088208,4.088208,4.088208,90.0,90.0,90.0,cubic,Pm-3m,2.988423,-8.753013688,-2.313288763000001,0.6047194465937601,False,5.658682029036143,0.0,False,68.32803813085468,,
mp-8467,YNiGe3,10,Y1 Ni1 Ge3,4.066180760056678,4.08783135,10.944617262710254,90.0,100.7055415636969,90.0,ortho,Cmmm,0.0,-5.802276762,-0.570614412999999,0.0,True,6.791014230471222,0.0,False,178.75356275824376,,
mp-1346989,YNiO3,30,Y1 Ni1 O3,6.180908565987043,6.180908565987043,11.359736,90.0,90.0,120.00000605823567,hex_,P6_3cm,6.0011188,-7.821909746666666,-2.395287507666666,0.070424734333334,False,5.185134837052863,0.0064999999999990005,True,375.84041756987244,,
mp-1399857,YNiO3,10,Y1 Ni1 O3,3.547474343582769,3.547474343582769,11.365723,90.0,90.0,120.00000640772858,hex_,P6_3/mmc,1.926362,-7.637785980000001,-2.211163741000001,0.25454850099999904,False,5.24416181940283,0.0,False,123.87001707331976,,
mp-1433326,YNiO3,5,Y1 Ni1 O3,3.756882,3.756882,3.756882,90.0,90.0,90.0,cubic,Pm-3m,1.0014157,-7.682370101999998,-2.255747862999998,0.209964379000002,False,6.125331853295538,0.0,False,53.025242522589764,,
mp-19242,YNiO3,20,Y1 Ni1 O3,5.1637085,5.5062684,7.38760105,90.0,90.0,90.0,ortho,Pnma,3.9999993,-7.892334481000001,-2.465712242,0.0,True,6.185143049224782,0.0,False,210.04992412781706,,
mp-979436,YOsO3,5,Y1 Os1 O3,3.964378,3.964378,3.964378,90.0,90.0,90.0,cubic,Pm-3m,0.012978199999999001,-8.362913752,-1.846845363,0.734620989874994,False,8.718658670203752,0.0,False,62.30532592089454,"{'voigt': 202.703, 'reuss': 202.703, 'vrh': 202.703}","{'voigt': -8.061, 'reuss': -202.382, 'vrh': -105.222}"
mp-1018629,YPd3C,5,Y1 Pd3 C1,4.299661,4.299661,4.299661,90.0,90.0,90.0,cubic,Pm-3m,0.0060285,-6.498267538,-0.24278705349999902,0.43816927849999904,False,8.777650030307342,0.0,False,79.48819715244197,"{'voigt': 153.404, 'reuss': 153.404, 'vrh': 153.404}","{'voigt': 29.97, 'reuss': 11.122, 'vrh': 20.546}"
mp-1018645,YPt3C,5,Y1 Pt3 C1,4.324374,4.324374,4.324374,90.0,90.0,90.0,cubic,Pm-3m,0.0008575,-7.043953655999999,-0.25372226549999904,0.5129414184999991,False,14.08997308589246,0.0,False,80.86670404559577,"{'voigt': 182.457, 'reuss': 182.457, 'vrh': 182.457}","{'voigt': 6.117, 'reuss': -69.41, 'vrh': -31.646}"
mp-989611,YReN3,10,Y1 Re1 N3,5.471117057979019,5.471117057979019,5.4711171614767125,60.99983681486466,60.99983681486466,60.99983482033923,trig,R-3c,0.00045969999999900005,-20.867506306000003,-0.845412769750001,0.032463341499997,False,8.894777827770577,0.0,False,118.40917513126834,,
mp-989628,YReN3,20,Y1 Re1 N3,7.436322440200398,7.436322440200398,6.334765266999322,72.5418525956161,72.5418525956161,81.91295631829752,mono,C2/c,0.0259579,-20.891140208000003,-0.869046671750001,0.008829439499997,False,6.618187348579105,0.0,False,318.28150219661916,,
mp-989647,YReN3,20,Y1 Re1 N3,5.3829449,5.5955739300000005,7.68551211,90.0,90.0,90.0,ortho,Pnma,5.7e-06,-20.8999696475,-0.8778761112500001,0.0,True,9.099406619113887,0.0,False,231.49274444991732,,
mp-998367,YReN3,5,Y1 Re1 N3,3.938282,3.950566801974243,3.950570150330203,89.7068962057572,89.06256046558035,88.1048865826555,tri,P1,4.6700000000000003e-05,-20.77428955,-0.75219601375,0.125680097500001,False,8.573630359615676,0.0,False,61.4222483000434,,
mp-22120,YRh3C,5,Y1 Rh3 C1,4.15423783,4.15423783,4.15423783,90.0,90.0,90.0,cubic,Pm-3m,4e-07,-8.042441466,-0.47630534550000003,0.0,True,9.487898232869844,0.0,False,71.69255674971174,,