mp_id,formula,sites,composition,a_edge (angstrom),b_edge (angstrom),c_edge (angstrom),alpha_ang (deg),beta_ang (deg),gamma_ang (deg),crystal_system,space_group,total_magnetisation (bohr),energy_per_atom (eV/atom),formation_energy (eV/atom),energy_above_hull (eV/atom),stable,density (g/cc),band_gap (eV),direct_bandgap,volume (cubic-angstrom),bulk_modulus (GPa),shear_modulus (GPa)
mp-866471,CaSnS3,20,Ca1 Sn1 S3,9.064421627020225,9.064421627020225,9.064421627020225,60.00000000000001,60.00000000000001,60.00000000000001,cubic,Fd-3m,0.0003204,-4.7552729945,-1.069222906999999,0.31785674675000203,False,3.215992432774672,0.0,False,526.6296381842685,,
mp-866495,CaSnS3,20,Ca1 Sn1 S3,8.111912,7.874281,8.694372711301547,64.97509842839082,90.0,90.0,mono,P2_1/c,0.0007712,-4.910440428999999,-1.224390341499998,0.16268931225000302,False,3.365582775969202,0.6332999999999991,False,503.22248597428916,,
mp-866504,CaSnS3,30,Ca1 Sn1 S3,7.025877,8.89425,12.551392842603088,76.64411142964512,90.0,90.0,mono,P2_1,0.0046593,-4.890827036999999,-1.204776949499998,0.182302704250003,False,3.329028125644253,0.6837000000000001,False,763.1222389932685,,
mp-866505,CaSnS3,100,Ca1 Sn1 S3,13.212776,14.581803000000034,14.581803000000034,90.0,90.0,90.0,tet,P4_1,0.0,-4.9091017564,-1.223051668899999,0.164027984850002,False,3.014211996924331,0.30109999999999904,False,2809.419067078957,,
mp-866519,CaSnS3,10,Ca1 Sn1 S3,6.794789140914529,6.794789140914529,6.794789173615985,62.7862978285765,62.7862978285765,62.78629643836101,trig,R-3c,0.0003806,-4.877091551,-1.191041463499998,0.19603819025000202,False,3.594757580445283,0.397999999999999,True,235.5703956907269,,
mp-866565,CaSnS3,40,Ca1 Sn1 S3,9.974729,9.974729,9.974729,90.0,90.0,90.0,cubic,P2_13,0.0002675,-4.8382225747500005,-1.152172487249998,0.234907166500001,False,3.41308414217441,0.42640000000000006,False,992.4378425645771,,
mp-866606,CaSnS3,60,Ca1 Sn1 S3,7.033019,8.879264,25.018701301496087,76.81606830820455,90.0,90.0,mono,P2_1/c,0.0020062,-4.897321815666667,-1.211271728166665,0.17580792558333502,False,3.3400913544965602,0.698399999999999,False,1521.189169567561,,
mp-866629,CaSnS3,90,Ca1 Sn1 S3,12.322445,13.001830319212214,17.190450214322954,100.89577021347404,86.54603308065256,114.51282349988256,tri,P-1,0.0499758,-4.8893429901111105,-1.203292902611109,0.183786751138891,False,3.097819471040446,0.0,False,2460.235743879509,,
mp-866787,CaSnS3,120,Ca1 Sn1 S3,7.192239930092308,16.589666308191866,27.990565225858976,86.3982036198951,82.61845505561494,77.48068325918119,mono,C2/c,7.94e-05,-4.871731294583333,-1.185681207083332,0.201398446666669,False,3.144899438700671,1.2199,False,3231.207161222054,,
mp-866811,CaSnS3,20,Ca1 Sn1 S3,3.843455999999999,8.306908,13.790834,90.0,90.0,90.0,ortho,Pnma,0.0005426,-4.9992920095,-1.3132419219999991,0.07383773175000201,False,3.846524209235946,0.8249000000000001,False,440.30320339824056,,
mp-866816,CaSnS3,5,Ca1 Sn1 S3,5.011115,5.011115,5.011115,90.0,90.0,90.0,cubic,Pm-3m,0.0148375,-4.59286501,-0.9068149224999981,0.480264731250002,False,3.364784196227661,0.0,False,125.83547952155797,,
mp-866820,CaSnS3,5,Ca1 Sn1 S3,5.205274,5.205274,5.205274,90.0,90.0,90.0,cubic,Pm-3m,2.004433,-4.067921308000001,-0.38187122049999905,1.005208433250001,False,3.00213030316611,0.0,False,141.03626094188232,"{'voigt': 33.29, 'reuss': 33.29, 'vrh': 33.29}","{'voigt': -0.855, 'reuss': -77.303, 'vrh': -39.079}"
mp-866826,CaSnS3,10,Ca1 Sn1 S3,7.34034054087983,7.34034054087983,7.340340401034546,54.81415602548268,54.81415602548268,54.81415303355902,trig,R-3,0.0003628,-5.000754142,-1.314704054499998,0.072375599250002,False,3.443850543883626,1.6173000000000002,False,245.89291981375573,,
mp-866833,CaSnS3,10,Ca1 Sn1 S3,6.711314505088404,6.711314505088404,6.351312,90.0,90.0,120.00000497911093,hex_,P6_3/mmc,0.0003359,-4.683644213,-0.997594125499998,0.38948552825000204,False,3.418071002771809,0.0,False,247.74747655944734,,
mp-866844,CaSnS3,20,Ca1 Sn1 S3,6.730638,7.06358,9.634918,90.0,90.0,90.0,ortho,Pnma,0.0012443,-4.96161246,-1.275562372499998,0.11151728125000201,False,3.697355339835932,0.9076000000000001,True,458.0671251767284,,
mp-866845,CaSnS3,10,Ca1 Sn1 S3,6.959651013151019,6.959651013151019,6.959651013151019,120.68060855767447,119.53209657747486,89.81877746767447,ortho,Ima2,5.9300000000000005e-05,-4.908704038,-1.222653950499998,0.16442570325000203,False,3.5587602618100522,0.6919000000000001,False,237.95322059908239,,
mp-866850,CaSnS3,10,Ca1 Sn1 S3,6.484474652660923,6.484474652660923,9.421745,90.0,90.0,146.04445645872994,ortho,Cmcm,3.3100000000000005e-05,-4.984162966,-1.2981128784999991,0.088966775250002,False,3.826905443169613,0.424699999999999,False,221.28021666936272,,
mp-866894,CaSnS3,5,Ca1 Sn1 S3,5.7033890963729625,5.7033890963729625,4.12008,90.0,90.0,100.96746350378444,ortho,Amm2,1.6e-06,-4.578066252,-0.8920161644999981,0.49506348925000204,False,3.218060693458842,0.0,False,131.57279279396633,,
mp-866917,CaSnS3,5,Ca1 Sn1 S3,4.952503977083511,4.952503977083511,5.398576999999999,90.0,90.0,109.82810318399903,ortho,Amm2,0.0001266,-4.778053584,-1.092003496499998,0.295076157250002,False,3.399174940744779,0.0,False,124.56235415941737,,
mp-866936,CaSnS3,20,Ca1 Sn1 S3,6.551173,6.915074,10.30842,90.0,90.0,90.0,ortho,Pnma,0.0009971,-4.8596792995,-1.173629211999998,0.21345044175000202,False,3.6267056614082893,0.24880000000000002,True,466.99045618656936,,
mp-866941,CaSnS3,20,Ca1 Sn1 S3,10.208588,7.359663,7.423239505246345,80.65087032468375,90.0,90.0,mono,P2_1/c,3.01e-05,-4.9897667310000005,-1.3037166434999992,0.083363010250002,False,3.077589716886972,1.3663,True,550.3127730062115,,
mp-866951,CaSnS3,15,Ca1 Sn1 S3,10.20624480311897,10.20624480311897,10.206244547006799,38.69621169456556,38.69621169456556,38.696208724122265,trig,R-3m,0.317585299999999,-4.637990930666667,-0.951940843166665,0.43513881058333503,False,3.400895163867674,0.0,False,373.4980460297501,,
mp-867022,CaSnS3,30,Ca1 Sn1 S3,6.9939409999999995,10.74142788314482,12.557810372259729,110.2286631667202,90.25348304457735,92.72687906615572,tri,P1,0.0034057,-4.887189198333333,-1.201139110833331,0.185940542916669,False,2.873838792529319,1.1208,False,883.993703306268,,
mp-867047,CaSnS3,60,Ca1 Sn1 S3,16.050723769793873,16.050723769793873,16.188666931800068,65.63586428258272,65.63586428258272,25.54315540715429,mono,C2,7.460000000000001e-05,-4.8603325181666674,-1.174282430666665,0.212797223083335,False,3.118037413163519,0.0,False,1629.5220744870371,,
mp-867053,CaSnS3,90,Ca1 Sn1 S3,11.726225,13.594355951933471,16.41044599462114,97.20502739976575,92.21788563892689,105.66275186228374,tri,P1,0.0022827,-4.851595037666666,-1.165544950166665,0.22153470358333602,False,3.058640897969417,0.0,False,2491.749258894472,,
mp-989634,CaTcN3,20,Ca1 Tc1 N3,7.398940413721413,7.398940413721413,6.239396578432003,74.76614251218109,74.76614251218109,84.1307900265977,mono,C2/c,0.0011744,-12.639079162499998,-0.561237609749998,0.012092532500000001,False,3.764292065759019,1.406499999999999,False,317.7861076091947,,
mp-989638,CaTcN3,10,Ca1 Tc1 N3,3.6389063115988884,6.367023436859787,6.43767375164263,105.07113286804383,90.00000125561496,106.60441056886005,mono,C2/m,0.0,-12.651171694999999,-0.57333014225,0.0,True,4.3476633381132395,0.47400000000000003,False,137.57271785455993,,
mp-1188853,CaTcO3,20,Ca1 Tc1 O3,5.42016857,5.59445017,7.74489509,90.0,90.0,90.0,ortho,Pnma,12.0039714,-7.9171406865,-2.475116318499999,0.0,True,5.262767383604945,0.0,False,234.84739259201066,,
mp-998432,CaTcO3,5,Ca1 Tc1 O3,3.9271829183352285,3.9387090034474483,3.948519326593451,89.75916015442039,89.87527470717296,89.96474487840536,mono,Cm,0.026685999999999002,-7.80810074,-2.366076372,0.10903994650000201,False,5.059126951177647,0.0,False,61.075122732895636,,
mp-998525,CaTcO3,5,Ca1 Tc1 O3,3.9378651473966193,3.9378651473966193,3.9387099067407845,89.86167546271824,89.86167546271824,89.87528429088546,tet,P4mm,0.0418599,-7.808188792,-2.366164424,0.108951894500003,False,5.059036420234826,0.0,False,61.07621566601265,,
mp-998543,CaTcO3,10,Ca1 Tc1 O3,5.499367206106535,5.499367206106535,5.499367246385805,60.72498467520886,60.72498467520886,60.724989792817134,trig,R3c,3.1005888,-7.887651867,-2.445627498999999,0.029488819500003004,False,5.170101151039446,0.0,False,119.52833820373253,,
mp-1195263,CaTeO3,40,Ca1 Te1 O3,6.551254,8.23491,13.777608,90.0,90.0,90.0,ortho,Pca2_1,0.005163,-6.3825486325,-2.383990874833332,0.027080403100001003,False,3.854643236960351,3.5191,True,743.2879959459007,,
mp-1228456,CaTeO3,90,Ca1 Te1 O3,10.506707,11.45506331343987,14.27644868730137,77.99911868576048,84.79612879466661,72.86985758469615,tri,P-1,0.00038629999999900005,-6.394135009999999,-2.395577252333333,0.015494025600001002,False,4.015677188280242,3.1072,False,1605.3326258044688,,
mp-1366217,CaTeO3,100,Ca1 Te1 O3,12.114144080000932,12.114144080000932,11.07393812,90.0,90.0,90.0,tet,P4_1,0.0,-6.409629035600001,-2.411071277933333,0.0,True,4.407514548542142,2.895,False,1625.1279576798906,,
mp-17008,CaTeO3,30,Ca1 Te1 O3,5.69158575,8.463031368884868,11.343008223055289,69.75331200195144,90.0,90.0,mono,P2_1,0.0,-6.393877247133332,-2.395319489466665,0.015751788466668002,False,4.191933759212914,3.2993,False,512.6112811998438,,
mp-2981,CaTeO3,90,Ca1 Te1 O3,10.598158,11.37964546827589,13.931536414340343,103.34600352812527,85.72763983933454,108.87402398569054,tri,P-1,0.001640599999999,-6.3980942964444445,-2.399536538777777,0.011534739155556,False,4.167330249802311,2.960699999999999,False,1546.9130639096422,,
mp-560097,CaTeO3,60,Ca1 Te1 O3,5.749993,8.67375,22.94403208468322,69.12707606874817,90.0,90.0,mono,P2_1/c,0.0003072,-6.396399992666668,-2.397842235,0.013229042933333001,False,4.019465917819278,3.297499999999999,False,1069.212964582537,,
mp-560656,CaTeO3,100,Ca1 Te1 O3,12.272661,12.272661,11.19773,90.0,90.0,90.0,tet,P4_3,0.0097468,-6.4068527626,-2.408295004933332,0.002776273000001,False,4.246917733122034,2.9438,False,1686.5820265021075,,
mp-561374,CaTeO3,90,Ca1 Te1 O3,10.455993,11.46656367624935,14.218036490225435,78.07817308845263,85.12928181606621,72.6545303257166,tri,P1,0.0001046,-6.39608214111111,-2.397524383444444,0.013546894488890002,False,4.050457341608824,3.152199999999999,False,1591.5480799717564,,
mp-1205364,CaTiO3,20,Ca1 Ti1 O3,5.411361367000652,5.411361367000652,7.68509595,90.0,90.0,90.60100906523411,ortho,Cmcm,0.0,-8.493632547,-3.544637564666666,0.011449592499999,False,4.012620644503752,2.1378,False,225.02899171175915,,
mp-3442,CaTiO3,10,Ca1 Ti1 O3,5.441143344248945,5.441143344248945,5.441143344248945,120.84549073210634,120.84549073210634,88.54170096725916,tet,I4/mcm,0.0,-8.487685553999999,-3.538690571666666,0.017396585500002,False,4.016239102380592,2.2434,False,112.41312515722095,"{'voigt': 173.502, 'reuss': 169.813, 'vrh': 171.657}","{'voigt': 106.73, 'reuss': 105.494, 'vrh': 106.112}"
mp-4019,CaTiO3,20,Ca1 Ti1 O3,5.37204886,5.46279649,7.63635962,90.0,90.0,90.0,ortho,Pnma,0.0,-8.5050821395,-3.556087157166666,0.0,True,4.02925941391082,2.3053,True,224.09973769300066,"{'voigt': 172.28, 'reuss': 172.268, 'vrh': 172.274}","{'voigt': 102.735, 'reuss': 101.994, 'vrh': 102.365}"
mp-556003,CaTiO3,10,Ca1 Ti1 O3,5.410401931574983,5.410401931574983,5.410401931574983,119.77655700012497,119.57778242363575,90.56015926727478,ortho,Imma,0.0,-8.493670329,-3.544675346666666,0.011411810500000001,False,4.01211210218927,2.1586,False,112.52875726749468,,
mp-5827,CaTiO3,5,Ca1 Ti1 O3,3.889471,3.889471,3.889471,90.0,90.0,90.0,cubic,Pm-3m,0.0,-8.440614542,-3.491619559666667,0.0644675975,False,3.836497971925326,1.8284999999999991,False,58.83985762289643,"{'voigt': 176.478, 'reuss': 176.478, 'vrh': 176.478}","{'voigt': 103.987, 'reuss': 102.77, 'vrh': 103.379}"
mp-754701,CaTiO3,10,Ca1 Ti1 O3,5.923774920465834,5.923774920465834,5.923775101378259,53.59156916755366,53.59156916755366,53.5915681815752,trig,R-3,1.3e-06,-8.476729451,-3.527734468666666,0.0283526885,False,3.613170410158765,3.570599999999999,True,124.95341697913328,"{'voigt': -78188257228.197, 'reuss': -17328.751, 'vrh': -39094137278.474}","{'voigt': 215128083565.932, 'reuss': -82397.011, 'vrh': 107564000584.46}"
mp-1205521,CaTlBr3,10,Ca1 Tl1 Br3,7.406002467502111,7.406002467502111,10.87564125,90.0,90.0,146.57036326407325,ortho,Cmcm,0.0,-3.773300503999999,-1.915718183666667,0.0,True,4.892994481821508,3.7234,False,328.6284841078922,,
mp-998151,CaTlCl3,5,Ca1 Tl1 Cl3,5.40007419609342,5.40007419609342,5.397680296140556,89.98658231962814,89.98658231962814,90.02388806487262,mono,Cm,0.0,-4.17169119,-2.187154794666668,0.038755097000015004,False,3.701069690568498,3.9626,False,157.40066040659985,,
mp-998787,CaTlCl3,10,Ca1 Tl1 Cl3,4.070888618479695,7.0759854355798835,10.33872924,90.0,90.0,106.79705445096577,ortho,Cmcm,0.0,-4.210446287000008,-2.225909891666675,0.0,True,4.086550330740566,4.2088,False,285.1063935878464,,
mp-1097061,CaTlF3,5,Ca1 Tl1 F3,4.51086491101762,4.51086491101762,4.508624306634785,89.92703745226865,89.92703745226865,89.96285260609585,mono,Cm,0.0002981,-17.18301115899999,-3.26529877749999,0.018102339500021002,False,5.456458649449334,4.4565,True,91.74087869651437,,
mp-998150,CaTlF3,5,Ca1 Tl1 F3,4.470460416110901,4.470460416110901,4.45005966,90.0,90.0,90.34013457714113,ortho,Amm2,0.0,-17.160098478000002,-3.242386096500001,0.041015020500008006,False,5.628738537937754,4.456399999999999,True,88.93294788836994,,
mp-998615,CaTlF3,10,Ca1 Tl1 F3,6.256542655076574,6.25654327089994,6.256544007683898,60.4433488271298,60.44334559810915,60.44335175754958,trig,R3c,0.0,-17.164239479,-3.246527097500001,0.036874019500011006,False,5.723793858077697,4.6281,False,174.91206828325397,,
mp-1206188,CaTlI3,10,Ca1 Tl1 I3,7.925339799318744,7.925339799318744,11.65178533,90.0,90.0,146.41985098211552,ortho,Cmcm,0.0,-3.256533485,-1.466711516666668,0.016393085000001,False,5.129160286873277,3.2233,False,404.79414615376163,,
mp-1183538,CaTmO3,5,Ca1 Tm1 O3,4.272108,4.272108,4.272108,90.0,90.0,90.0,cubic,Pm-3m,1.0000608,-7.233149296000001,-2.966752421000001,0.40145595524999905,False,5.4736010757073235,0.0,False,77.96984479230309,,
mp-1016853,CaVO3,5,Ca1 V1 O3,3.830406,3.830406,3.830406,90.0,90.0,90.0,cubic,Pm-3m,0.9968925,-8.017946754,-2.831268961,0.10623166291071501,False,4.107568071709151,0.0,False,56.19975561423256,,
mp-1435359,CaVO3,20,Ca1 V1 O3,5.381454,5.437594,7.682538597074408,89.54560637636241,90.0,90.0,mono,P2_1/c,3.9981356,-8.115363726000002,-2.928685933000001,0.008814690910714,False,4.10753889584289,0.2606,False,224.8006192053436,,
mp-22608,CaVO3,20,Ca1 V1 O3,5.3110846800000004,5.3541072280012285,7.551772193198251,90.05243750428272,90.0,90.0,ortho,Pnma,3.999347,-8.123021790500001,-2.9363439975,0.001156626410715,False,4.299918247158427,0.433899999999999,False,214.74298675462558,,
mp-989616,CaWN3,10,Ca1 W1 N3,3.629991135669576,5.796946248869757,7.449862649503886,105.7650397287424,104.10076839947322,90.0000029929795,mono,C2/m,0.0,-17.964336496,-0.8058684772500011,0.0,True,6.051179304803491,0.5612,False,145.95522033096265,,
mp-1342410,CaWO3,20,Ca1 W1 O3,5.580866,5.794242,7.910173,90.0,90.0,90.0,ortho,Pnma,7.9996162,-8.5729237665,-2.611401141499999,0.053646282333334,False,7.060898434255337,1.9784000000000002,True,255.79037973460856,,
mp-1431390,CaWO3,5,Ca1 W1 O3,4.099486910460015,4.099486910460015,4.128679096565874,88.89967659662146,88.89967659662146,86.7517944983479,mono,Cm,2.0000836,-8.406033696,-2.444511070999999,0.22053635283333503,False,6.5202453335588775,0.0,False,69.25007416783295,,
mp-1183544,CaYO3,5,Ca1 Y1 O3,4.345547,4.345547,4.345547,90.0,90.0,90.0,cubic,Pm-3m,0.9998708,-7.493833682,-2.822118803,0.477989082874999,False,3.5813351424331543,0.0,False,82.06034800537797,,
mp-1183540,CaZnO3,5,Ca1 Zn1 O3,3.876624999999999,3.876624999999999,3.876624999999999,90.0,90.0,90.0,cubic,Pm-3m,0.081311799999999,-5.42397338,-1.8021280789999992,0.238167657999997,False,4.374759928378614,0.0,False,58.258778748431645,,
mp-4571,CaZrO3,20,Ca1 Zr1 O3,5.58500572,5.77809678,8.01738023,90.0,90.0,90.0,ortho,Pnma,0.0,-8.7496117745,-3.670175069499999,0.0,True,4.603084505750543,3.8263,True,258.7265007863652,"{'voigt': 149.349, 'reuss': 148.737, 'vrh': 149.043}","{'voigt': 85.595, 'reuss': 84.785, 'vrh': 85.19}"
mp-542112,CaZrO3,5,Ca1 Zr1 O3,4.160071,4.160071,4.160071,90.0,90.0,90.0,cubic,Pm-3m,0.0,-8.55771869,-3.478281985,0.1918930845,False,4.135496361472064,3.2122,False,71.99498215571205,"{'voigt': 155.28, 'reuss': 155.28, 'vrh': 155.28}","{'voigt': 87.401, 'reuss': 76.021, 'vrh': 81.711}"
mp-776024,CaZrO3,40,Ca1 Zr1 O3,5.831835,8.123604,11.457092,90.0,90.0,90.0,ortho,Pba2,0.00041989999999900006,-8.724246397749999,-3.644809692749999,0.025365376749999002,False,4.388251250010517,3.744799999999999,True,542.7856698013446,,
mp-7781,CaZrS3,20,Ca1 Zr1 S3,6.5877,7.082334,9.662054,90.0,90.0,90.0,ortho,Pnma,6.06e-05,-6.625294913499999,-2.031619070999999,0.036572482499994,False,3.352008296890533,1.1878,True,450.7956097659229,"{'voigt': 69.929, 'reuss': 67.734, 'vrh': 68.832}","{'voigt': 38.061, 'reuss': 35.083, 'vrh': 36.572}"
mp-1246622,Cd3SbN,20,Cd3 Sb1 N1,6.731846,6.634417,9.397146,90.0,90.0,90.0,ortho,Pnma,0.002038,-18.772442963,0.257562931250001,0.295910871,False,7.485779701419775,0.0,False,419.6941463244568,,
mp-1183631,CdBO3,5,Cd1 B1 O3,3.501721,3.501721,3.501721,90.0,90.0,90.0,cubic,Pm-3m,0.672809299999999,-5.485021036,-0.9883640408333321,1.024361147950001,False,6.621547143902192,0.0,False,42.938277854427824,,
mp-755478,CdBiO3,10,Cd1 Bi1 O3,5.829561945778875,5.830423031049121,5.9722270156755,60.77515691705546,119.17519247550568,119.97930801562171,trig,R3,0.0,-5.373882152000002,-1.4350966490000021,0.0,True,8.444817808315447,0.766999999999999,False,145.26917584693376,"{'voigt': 152298951.66, 'reuss': 1960.896, 'vrh': 76150456.278}","{'voigt': 794127451.816, 'reuss': 27121.391, 'vrh': 397077286.603}"
mp-1198558,CdCO3,40,Cd1 C1 O3,5.987672,7.475772,14.434155500155212,60.63000804537034,90.0,90.0,mono,P2_1/c,8.0091256,-6.1947669085,-1.188255169,0.567171788499999,False,4.067880679212036,0.0,False,563.0646567828524,,
mp-4385,CdCO3,10,Cd1 C1 O3,6.145127278074705,6.145126917496629,6.145126562802549,47.524360931140734,47.52436881058133,47.52435309185716,trig,R-3c,0.0,-6.761938697,-1.7554269574999992,0.0,True,4.956502910786648,2.6226000000000003,False,115.52902720431366,,
mp-547864,CdCO3,5,Cd1 C1 O3,4.143972673313496,4.143972673313496,4.143972778769668,93.46523889566578,93.46523889566578,93.46524145185784,trig,R-3m,0.0064671,-3.528635045999999,1.4778766935,3.233303650999999,False,4.046466013647906,0.0,False,70.7555627166026,,
mp-654812,CdCO3,5,Cd1 C1 O3,4.562464581044876,4.562464581044876,4.562464291584976,58.5483174210162,58.5483174210162,58.5483064352023,trig,R-3m,0.7185108,-3.873192376,1.1333193635,2.8887463209999993,False,4.409772139623286,0.0,False,64.92625259175497,"{'voigt': 4309.854, 'reuss': 112.074, 'vrh': 2210.964}","{'voigt': -6215.153, 'reuss': -67.497, 'vrh': -3141.325}"
mp-1017553,CdCo3N,5,Cd1 Co3 N1,3.855044,3.855044,3.855044,90.0,90.0,90.0,cubic,Pm-3m,3.3160008,-6.15998521,-0.020277590999999002,0.0038991559999990003,False,8.78850561163403,0.0,False,57.291213052689926,,
mp-752746,CdCoO3,20,Cd1 Co1 O3,5.314718,5.389024,7.5891210000000004,90.0,90.0,90.0,ortho,Pnma,12.0017419,-5.674122783,-1.086660797999999,0.106052457999999,False,6.702701044968174,0.0,False,217.36109870664112,,
mp-768578,CdCoO3,20,Cd1 Co1 O3,5.131425082811305,6.8392078843431126,6.839010040297425,96.83171661994545,94.51550162314946,85.49482022797625,mono,C2/c,1.899999999999999e-06,-5.727936619499999,-1.140474634499999,0.052238621499999006,False,6.147559992602916,0.130199999999999,False,236.9893852503211,,
mp-770662,CdCoO3,10,Cd1 Co1 O3,5.79815774538991,5.79815774538991,5.798157250687929,51.93096301519388,51.93096301519388,51.930963843982774,trig,R-3,0.0491322,-5.7140800590000005,-1.126618073999999,0.066095181999999,False,6.522672611211341,0.0,False,111.68017699771292,,