mp_id,formula,sites,composition,a_edge (angstrom),b_edge (angstrom),c_edge (angstrom),alpha_ang (deg),beta_ang (deg),gamma_ang (deg),crystal_system,space_group,total_magnetisation (bohr),energy_per_atom (eV/atom),formation_energy (eV/atom),energy_above_hull (eV/atom),stable,density (g/cc),band_gap (eV),direct_bandgap,volume (cubic-angstrom),bulk_modulus (GPa),shear_modulus (GPa)
mp-17193,Ca3GeO,10,Ca3 Ge1 O1,6.66971808025148,6.66971808025148,6.66971808025148,120.08931702437951,119.79060003148753,90.10422069810798,ortho,Imma,0.0,-4.825235687000001,-1.7076779870000012,0.0,True,3.30343145132463,0.14019999999999902,True,209.9891859626689,,
mp-9721,Ca3GeO,5,Ca3 Ge1 O1,4.71483028,4.71483028,4.71483028,90.0,90.0,90.0,cubic,Pm-3m,2e-07,-4.822209770000001,-1.704652069999999,0.0030259170000000004,False,3.309284015030698,0.0,False,104.80890703191913,"{'voigt': 58.534, 'reuss': 58.534, 'vrh': 58.534}","{'voigt': 48.437, 'reuss': 48.418, 'vrh': 48.427}"
mp-1013540,Ca3PN,5,Ca3 P1 N1,5.29,5.29,5.29,90.0,90.0,90.0,cubic,Pm-3m,0.0035256,-7.89443655,-0.045294933345238,1.160128551999999,False,1.8532334987923171,0.0,False,148.035889,"{'voigt': 36.021, 'reuss': 36.021, 'vrh': 36.021}","{'voigt': 26.808, 'reuss': 15.631, 'vrh': 21.22}"
mp-11824,Ca3PN,5,Ca3 P1 N1,4.71165792,4.71165792,4.71165792,90.0,90.0,90.0,cubic,Pm-3m,0.0,-9.054565102,-1.205423485345237,0.0,True,2.6228647853136993,0.8055999999999991,True,104.59748823288615,,
mp-21128,Ca3PbN,5,Ca3 Pb1 N1,5.953987,5.953987,5.953987,90.0,90.0,90.0,cubic,Pm-3m,1.040118399999999,-2.86468671,0.748858181,1.484656997749998,False,2.686214811134139,0.0,False,211.06860811249467,,
mp-20273,Ca3PbO,5,Ca3 Pb1 O1,4.84593119,4.84593119,4.84593119,90.0,90.0,90.0,cubic,Pm-3m,8e-07,-4.6247941799999985,-1.689312636999997,0.0,True,5.011409566417091,0.0,False,113.79724006134056,,
mp-1013544,Ca3SbAs,5,Ca3 Sb1 As1,5.49,5.49,5.49,90.0,90.0,90.0,cubic,Pm-3m,0.0001841,-3.9103294660000003,-0.9471447835000001,0.16601989263636602,False,3.180355599792073,0.400599999999999,True,165.46914900000002,"{'voigt': 35.485, 'reuss': 35.485, 'vrh': 35.485}","{'voigt': 27.256, 'reuss': 21.14, 'vrh': 24.198}"
mp-1013738,Ca3SbAs,5,Ca3 Sb1 As1,5.75,5.75,5.75,90.0,90.0,90.0,cubic,Pm-3m,0.0038031,-3.430508728,-0.46732404549999906,0.6458406306363661,False,2.768147202708856,0.0,False,190.109375,,
mp-1013548,Ca3SbN,5,Ca3 Sb1 N1,4.86018189,4.86018189,4.86018189,90.0,90.0,90.0,cubic,Pm-3m,0.0,-4.899586169999999,-1.202770444999998,0.0,True,3.702820690540552,0.40750000000000003,True,114.8041449895023,"{'voigt': 57.655, 'reuss': 57.655, 'vrh': 57.655}","{'voigt': 49.134, 'reuss': 49.127, 'vrh': 49.131}"
mp-31157,Ca3SbN,5,Ca3 Sb1 N1,5.757405,5.757405,5.757405,90.0,90.0,90.0,cubic,Pm-3m,0.0201472,-3.2163432139999992,0.48047251100000005,1.683242955999999,False,2.227459972134415,0.0,False,190.84480473047722,,
mp-1013550,Ca3SbP,5,Ca3 Sb1 P1,5.38244377,5.38244377,5.38244377,90.0,90.0,90.0,cubic,Pm-3m,0.0,-4.133625522,-1.02137064092857,0.0,True,2.906845517813132,0.6583,True,155.9331687720289,"{'voigt': 38.669, 'reuss': 38.669, 'vrh': 38.669}","{'voigt': 30.408, 'reuss': 25.354, 'vrh': 27.881}"
mp-1096764,Ca3SbP,5,Ca3 Sb1 P1,5.736281,5.736281,5.736281,90.0,90.0,90.0,cubic,Pm-3m,0.003231699999999,-3.429233762,-0.31697888092857,0.70439176,False,2.401425972323414,0.0,False,188.75186574451106,,
mp-11649,Ca3SiO,20,Ca3 Si1 O1,6.65263113,6.66897385,9.43018274,90.0,90.0,90.0,ortho,Pnma,0.0,-4.875991883499999,-1.597976148499999,0.0007115155000000001,False,2.608699415699829,0.5122,True,418.3815907476482,"{'voigt': 58.552, 'reuss': 58.531, 'vrh': 58.542}","{'voigt': 46.093, 'reuss': 45.991, 'vrh': 46.042}"
mp-1183521,Ca3SiO,20,Ca3 Si1 O1,6.65098862,6.67173224,9.40885366,90.0,90.0,90.0,ortho,Pnma,0.0,-4.876448076999999,-1.598432341999998,0.000255322000001,False,2.61417755163329,0.06999999999999901,True,417.5048518189012,,
mp-1205330,Ca3SiO,10,Ca3 Si1 O1,6.656829999814691,6.656829999814691,6.656829999814691,120.06434886188134,119.87364332412095,90.05378800544254,ortho,Imma,1e-07,-4.876703399,-1.598687663999999,0.0,True,2.615034647289244,0.056599999999999005,True,208.68400586094293,,
mp-637179,Ca3SnN,5,Ca3 Sn1 N1,5.896994,5.896994,5.896994,90.0,90.0,90.0,cubic,Pm-3m,1.0013368,-3.001288218,0.6716416300000001,1.465755379159095,False,2.048296983202054,0.0,False,205.0652433306749,"{'voigt': 19.651, 'reuss': 19.651, 'vrh': 19.651}","{'voigt': 13.8, 'reuss': 5.16, 'vrh': 9.48}"
mp-29241,Ca3SnO,5,Ca3 Sn1 O1,4.82648645,4.82648645,4.82648645,90.0,90.0,90.0,cubic,Pm-3m,1.2e-06,-4.762233490000002,-1.7673669900000002,0.0,True,3.765300110312062,0.0,False,112.43286406637701,"{'voigt': 54.846, 'reuss': 54.846, 'vrh': 54.846}","{'voigt': 46.012, 'reuss': 45.331, 'vrh': 45.672}"
mp-10554,Ca3TlN,5,Ca3 Tl1 N1,4.953824,4.953824,4.953824,90.0,90.0,90.0,cubic,Pm-3m,0.020122499999999002,-17.444188678,-0.7596014077500001,0.023510039333334003,False,4.62535546395444,0.0,False,121.56868488711186,,
mp-1226791,CaAl3Au,5,Ca1 Al3 Au1,4.1670066646463475,4.167007674645365,6.503251026074866,71.22534504630823,71.22534512890026,90.09656240992712,tet,I4mm,1e-07,-16.114175518,-0.550265749999997,0.0,True,5.252778173235526,0.0,False,100.52460749383536,,
mp-1084760,CaBO3,10,Ca1 B1 O3,5.479484,3.673378,6.634696256152575,86.49954591864753,90.0,90.0,mono,P2_1/m,1.9990868,-7.523356677,-2.817581743833332,0.100919638000003,False,2.463790962359136,0.3587,False,133.29544697205682,,
mp-1189809,CaBO3,20,Ca1 B1 O3,9.439899,3.680898,8.194717934569438,69.008756619351,90.0,90.0,mono,P2_1/c,3.9998088,-7.521660023,-2.815885089833332,0.10261629200000301,False,2.470681810999028,0.5519000000000001,True,265.8473593089517,,
mp-984628,CaBO3,5,Ca1 B1 O3,3.47968,3.47968,3.47968,90.0,90.0,90.0,cubic,Pm-3m,0.0337239,-6.72671534,-2.020940406833332,0.8975609750000021,False,3.897366577624401,0.0,False,42.13256708502324,"{'voigt': 195.881, 'reuss': 195.881, 'vrh': 195.881}","{'voigt': 74.493, 'reuss': 43.826, 'vrh': 59.159}"
mp-1206909,CaBPd3,5,Ca1 B1 Pd3,4.27841036,4.27843393,4.27842164,90.0,90.0,90.0,cubic,Pm-3m,2.8e-05,-17.20711354,-0.5539117944999981,0.0,True,7.8482861424106884,0.0,False,78.316063381212,,
mp-984632,CaBeO3,5,Ca1 Be1 O3,3.614908,3.614908,3.614908,90.0,90.0,90.0,cubic,Pm-3m,2.0069434,-6.349246122,-2.23146697,0.333611442999998,False,3.412908258507991,0.0,False,47.238026636691295,,
mp-1178493,CaBiO3,20,Ca1 Bi1 O3,5.832066,6.037298,8.734338,90.0,90.0,90.0,ortho,Pnma,0.004220799999999,-6.312575148500001,-2.1646717075,0.099551023999997,False,6.415836048483473,0.0,False,307.5353457063267,,
mp-1378965,CaBiO3,20,Ca1 Bi1 O3,5.76338163,6.0323361,8.3243734,90.0,90.0,90.0,ortho,Pnma,1.5e-06,-6.386831215999999,-2.238927774999999,0.025294956499998,False,6.817636362206685,0.0,False,289.41061862777906,,
mp-755893,CaBiO3,20,Ca1 Bi1 O3,5.758310540008166,6.02554523,8.33034702401337,90.0,90.10598140615495,90.0,mono,P2_1/c,0.0,-6.412126172499998,-2.264222731499998,0.0,True,6.826443674238326,0.665299999999999,False,289.0372280681903,,
mp-867749,CaBiO3,10,Ca1 Bi1 O3,6.166580149185608,6.166580149185608,6.166580017434057,57.57400679631066,57.57400679631066,57.574011020519166,trig,R-3,9.76e-05,-6.391285753,-2.243382312,0.020840419499998,False,6.301221215178129,0.08040000000000001,False,156.56459992332617,,
mp-1079918,CaCO3,10,Ca1 C1 O3,3.8333788262494357,5.029813997053951,6.523390069641564,95.8906244655044,106.06120311891681,90.33384170866442,tri,P-1,0.0,-7.896950882000004,-2.681321204500004,0.006686684000004,False,2.766424134776147,4.8573,False,120.15381547293791,,
mp-1188902,CaCO3,20,Ca1 C1 O3,6.20672572330252,6.436406302901548,6.431665878653726,93.837789050943,106.71866540764897,106.17507621803857,tri,P-1,0.0,-7.900906733500004,-2.685277056000004,0.0027308325000040003,False,2.849567288688598,5.0381,False,233.29606311051344,,
mp-1194399,CaCO3,30,Ca1 C1 O3,7.125381870133418,7.125381870133418,9.413902438933343,68.34036705268743,68.34036705268743,60.54706716276775,mono,C2/c,0.0,-7.896338674333338,-2.680708996833338,0.0072988916666700005,False,2.650261142909816,4.9216,False,376.2607498876414,,
mp-1197230,CaCO3,50,Ca1 C1 O3,6.393639,7.697011567623178,12.741713044671897,93.770954714076,98.92079030867379,106.22137434869701,tri,P-1,8.83e-05,-7.8792393581999995,-2.6636096807,0.024398207800008002,False,2.8128569630520843,4.9254,False,590.851968969494,,
mp-1197939,CaCO3,90,Ca1 C1 O3,7.228084,7.263453560252245,26.00444062290602,82.20230341184903,82.3513248358097,60.19834816104551,tri,P-1,0.002276,-7.895481444,-2.6798517665,0.008156122000008,False,2.5562001250052653,4.956399999999999,False,1170.318280569606,,
mp-2717324,CaCO3,15,Ca1 C1 O3,4.997993421622983,4.997993421622983,8.595774497887527,89.51617990848233,89.51617990848233,59.7645085165827,trig,P321,0.0,-7.89515106266667,-2.6795213851666713,0.008486503333338,False,2.687798127490616,4.9875,False,185.5030024074616,,
mp-3205,CaCO3,10,Ca1 C1 O3,4.343253,4.9611909999999995,5.140678,90.0,90.0,90.0,ortho,Pmmn,0.0003809,-7.734772092,-2.5191424145,0.168865474000008,False,3.000784819551508,4.275500000000001,False,110.76982689463699,"{'voigt': 81.351, 'reuss': 51.14, 'vrh': 66.245}","{'voigt': -7.697, 'reuss': 24.312, 'vrh': 8.308}"
mp-3953,CaCO3,10,Ca1 C1 O3,6.35844783330001,6.3584472487227615,6.358445890476541,46.37140907204019,46.371422599020434,46.37141313904021,trig,R-3c,0.0,-7.903637566000005,-2.688007888500004,0.0,True,2.703519701080999,4.999499999999999,False,122.9495072208524,"{'voigt': 78.414, 'reuss': 72.048, 'vrh': 75.231}","{'voigt': 36.625, 'reuss': 29.739, 'vrh': 33.182}"
mp-4626,CaCO3,20,Ca1 C1 O3,5.016055,5.8120709999999995,8.034798,90.0,90.0,90.0,ortho,Pnma,0.004569099999999,-7.8792835165,-2.6636538389999993,0.024354049500008003,False,2.83803771952473,4.1871,False,234.24383173134112,"{'voigt': 72.901, 'reuss': 69.618, 'vrh': 71.259}","{'voigt': 34.766, 'reuss': 31.599, 'vrh': 33.183}"
mp-548403,CaCO3,10,Ca1 C1 O3,5.418571839968997,5.418571839968997,3.78627,90.0,90.0,109.56616879749961,ortho,C222_1,0.0001961,-7.593784954,-2.3781552765000002,0.309852612000008,False,3.1732658812663,5.7242,False,104.7489959704011,"{'voigt': 74.477, 'reuss': 71.043, 'vrh': 72.76}","{'voigt': -58.258, 'reuss': -1.73, 'vrh': -29.994}"
mp-553939,CaCO3,20,Ca1 C1 O3,4.43217633,6.5931459100000005,8.51392996,90.0,90.0,90.0,ortho,Pnma,0.0,-7.890947636000004,-2.675317958500004,0.012689930000004,False,2.672062035155288,4.718299999999999,True,248.79393564712478,"{'voigt': 75.827, 'reuss': 69.416, 'vrh': 72.622}","{'voigt': 33.1, 'reuss': 25.917, 'vrh': 29.508}"
mp-556235,CaCO3,20,Ca1 C1 O3,5.02851577,6.341896956736782,8.034803837194422,72.94075117142117,90.0,90.0,mono,P2_1/c,0.0,-7.902769873000004,-2.687140195500004,0.0008676930000040001,False,2.713896570280522,5.0106,False,244.95879367681047,,
mp-560265,CaCO3,90,Ca1 C1 O3,7.283349892046997,7.283349892046997,25.567819,90.0,90.0,119.99999901939171,hex_,P6_522,0.0407455,-7.8955692509999995,-2.6799395735,0.008068315000008,False,2.546901642574381,4.9434000000000005,False,1174.5909952235652,,
mp-561412,CaCO3,15,Ca1 C1 O3,5.040837189496701,5.040837189496701,8.744577875671357,89.35453169908246,89.35453169908246,59.596677624415086,mono,C2,0.0002791,-7.8964401466666665,-2.680810469166667,0.007197419333341001,False,2.601889128148362,4.9726,False,191.62792800071696,,
mp-641635,CaCO3,20,Ca1 C1 O3,3.633016999999999,7.76828,10.858715,90.0,90.0,90.0,ortho,Pnma,0.0015485,-6.5258647435,-1.310235066,1.377772822500008,False,2.169279894711278,0.006399999999999,True,306.45783959936216,,
mp-696740,CaCO3,10,Ca1 C1 O3,4.91782335205851,4.91782335205851,5.473712677759129,71.71716615590694,71.71716615590694,79.70982188501856,mono,C2/c,3.299999999999999e-06,-6.030930786000001,-0.8153011085,1.8727067800000072,False,2.796061304414723,1.5162,False,118.88023144734049,,
mp-756365,CaCeO3,20,Ca1 Ce1 O3,5.840719,6.06215,8.512602,90.0,90.0,90.0,ortho,Pnma,0.0001463,-8.176925261,-3.6196387079999983,0.059074767000012005,False,5.028686535488704,2.2817,False,301.40837780939603,,
mp-1099934,CaCoO3,5,Ca1 Co1 O3,3.76349,3.76349,3.76349,90.0,90.0,90.0,cubic,Pm-3m,2.8843039,-6.677725452,-1.881145528999999,0.16033285666666702,False,4.579540335701955,0.0,False,53.30553410603655,,
mp-1368304,CaCoO3,20,Ca1 Co1 O3,5.300495,5.412624,7.48887,90.0,90.0,90.0,ortho,Pnma,4.0023788,-6.772877062000001,-1.9762971390000001,0.065181246666666,False,4.544787683536706,0.0,False,214.85258326942397,,
mp-1399298,CaCoO3,5,Ca1 Co1 O3,3.176926347789637,3.176926347789637,9.795631958911942,84.06621218188002,84.06621218188002,89.95623289934164,mono,Cm,3.000326,-6.354939556,-1.558359632999999,0.48311875266666704,False,2.495948804483074,0.0,False,97.80442736496283,,
mp-20772,CaCrO3,20,Ca1 Cr1 O3,5.333433000043499,5.472255000132029,7.548760000087762,90.00058263990869,90.0001846122857,90.0004451997756,ortho,Pnma,8.0012736,-7.9187860535,-2.618279980499998,0.065114058000001,False,4.222917142537827,0.40690000000000004,False,220.31739524847345,,
mp-1099873,CaCuO3,5,Ca1 Cu1 O3,3.803636,3.803636,3.803636,90.0,90.0,90.0,cubic,Pm-3m,0.069038,-5.890185774,-1.700447860999999,0.162602422749999,False,4.575252255317861,0.0,False,55.02966228172412,,
mp-1001571,CaFeO3,5,Ca1 Fe1 O3,3.8366100000000003,3.8366100000000003,3.8366100000000003,90.0,90.0,90.0,cubic,Pm-3m,4.0602088,-7.2402726,-2.176371779,0.052147251500000005,False,4.231856237217894,0.0,False,56.47327359803378,,
mp-1272846,CaFeO3,20,Ca1 Fe1 O3,5.370985060783357,5.5027770051832015,7.669601040843129,89.99956389087106,88.82901137974117,90.00498280840604,mono,P2_1/c,15.999247,-7.2877994345,-2.2238986135,0.004620416999999001,False,4.218090935409315,0.060700000000000004,False,226.6302730514852,,
mp-1278982,CaFeO3,20,Ca1 Fe1 O3,5.43404702439333,6.6551424974779465,6.655120537335068,70.83781826037738,90.00104609969691,90.00102778850575,ortho,Pmma,16.4426158,-7.239529129999999,-2.175628308999999,0.0528907215,False,4.204867864514493,0.0,False,227.34295850654138,,
mp-19115,CaFeO3,20,Ca1 Fe1 O3,5.292470740010532,5.323392520007372,7.487766650022471,90.00018673602037,89.99978053373835,89.9999750621508,ortho,Pnma,15.5379632,-7.2924198515,-2.2285190305,0.0,True,4.53142298319831,0.0,False,210.95958245175632,,
mp-1227072,CaGa3Pt,5,Ca1 Ga3 Pt1,6.188460025418093,6.188460025418093,6.188460025418093,140.106665641655,140.106665641655,57.69137785561526,tet,I4mm,0.0,-4.086930999999998,-0.6547267464999981,0.0,True,7.634904639125258,0.0,False,96.63892594288887,,
mp-567485,CaGaAu3,40,Ca1 Ga1 Au3,9.193679420636037,9.193584560497486,9.193553570228634,89.99964078197591,90.00072392201538,89.99886313856581,cubic,Pa-3,1e-07,-34.66925953375,-0.6220695137500001,0.0,True,11.978818875534762,0.0,False,777.0655254461702,,
mp-1016884,CaGeO3,5,Ca1 Ge1 O3,3.783236999999999,3.783236999999999,3.783236999999999,90.0,90.0,90.0,cubic,Pm-3m,4.8400000000000004e-05,-6.873712094,-2.579209943999999,0.170772001333332,False,4.928537978810958,0.5017,False,54.1490255087543,"{'voigt': 172.617, 'reuss': 172.617, 'vrh': 172.617}","{'voigt': 116.443, 'reuss': 114.12, 'vrh': 115.281}"
mp-17761,CaGeO3,30,Ca1 Ge1 O3,7.3146163869145475,7.55744930079356,8.147430830744119,103.48197013686375,94.72958117756298,90.10958549048281,tri,P-1,0.0,-7.044484095333333,-2.749981945333333,0.0,True,3.669381308468726,3.481299999999999,False,436.38233200713995,,
mp-554549,CaGeO3,80,Ca1 Ge1 O3,10.799284675375503,10.799258743001731,10.799357345881944,109.14424646392283,109.14418524181116,110.12656338448703,tet,I4_1/a,3e-06,-7.030077613624999,-2.735575463624999,0.014406481708333,False,4.40456402078852,2.661399999999999,False,969.4508785919637,,
mp-776074,CaGeO3,30,Ca1 Ge1 O3,7.013544284949301,7.013544284949301,10.999716109269594,71.99172610148963,71.99172610148963,60.20347936689792,mono,C2/c,0.0008179,-7.014412666333333,-2.719910516333334,0.030071428999999,False,3.651340808611135,3.413499999999999,False,438.5384044777961,,
mp-776086,CaGeO3,30,Ca1 Ge1 O3,6.894019,6.950974516412644,9.566735407575825,69.97294636684626,84.05837556641272,76.43688647732216,tri,P-1,0.0006994999999990001,-7.023572567666667,-2.729070417666668,0.020911527666665,False,3.825522292658277,3.58,False,418.57112569596745,,
mp-8130,CaGeO3,20,Ca1 Ge1 O3,5.33181,5.374453,7.552712,90.0,90.0,90.0,ortho,Pnma,1.15e-05,-6.9371081895,-2.6426060395,0.10737590583333301,False,4.932384058856298,2.028699999999999,False,216.4272088717933,,
mp-1207169,CaH3Pd,5,Ca1 H3 Pd1,3.70671619,3.70671619,3.70671619,90.0,90.0,90.0,cubic,Pm-3m,7.2e-06,-8.642100877999999,-0.5692839752499991,0.0,True,4.875124009127207,0.0,False,50.92933491625866,,
mp-1016873,CaHfO3,5,Ca1 Hf1 O3,4.06701021,4.06701021,4.06701021,90.0,90.0,90.0,cubic,Pm-3m,0.0,-9.022185534000005,-3.660851149000004,0.160086913999997,False,6.580037829361946,3.6612,False,67.27067539944997,"{'voigt': 166.721, 'reuss': 166.721, 'vrh': 166.721}","{'voigt': 99.02, 'reuss': 87.825, 'vrh': 93.423}"
mp-754853,CaHfO3,20,Ca1 Hf1 O3,5.54646636,5.7217728900000004,7.94978423,90.0,90.0,90.0,ortho,Pnma,0.0,-9.182272448000003,-3.820938063000002,0.0,True,7.017975204441195,4.4855,True,252.29133819395093,,
mp-1190098,CaHfS3,20,Ca1 Hf1 S3,6.560269,7.017853,9.598232,90.0,90.0,90.0,ortho,Pnma,0.002485599999999,-17.279856388000002,-2.020915120687502,0.037140437999998,False,4.731246841013688,1.5238,True,441.8930364734302,,
mp-1183570,CaHgO3,5,Ca1 Hg1 O3,4.190761,4.190761,4.190761,90.0,90.0,90.0,cubic,Pm-3m,0.0003943,-4.643832956,-1.212001969500001,0.462410946999999,False,6.512779155765943,0.0,False,73.60014685629169,,
mp-1183539,CaHoO3,5,Ca1 Ho1 O3,4.311328,4.311328,4.311328,90.0,90.0,90.0,cubic,Pm-3m,0.999849099999999,-7.185042323999999,-2.895609851999998,0.441341794874999,False,5.242610785694643,0.0,False,80.13702098788315,,
mp-28534,CaInBr3,10,Ca1 In1 Br3,4.26679345,7.372794095444921,10.88832447,90.0,90.0,106.81968052593082,ortho,Cmcm,0.0,-3.759740196000001,-1.824617550333334,0.0,True,3.997038781356189,3.136,False,327.873726444337,,
mp-1206105,CaInI3,10,Ca1 In1 I3,7.911487531242971,7.911487531242971,11.725476,90.0,90.0,146.0575064410612,ortho,Cmcm,6.980000000000004e-05,-3.243666941,-1.376304647333333,0.021310372000001,False,4.3407602345872345,2.783499999999999,False,409.7901296905657,,
mp-1183543,CaInO3,5,Ca1 In1 O3,4.162759,4.162759,4.162759,90.0,90.0,90.0,cubic,Pm-3m,0.6713848,-5.900661439999999,-1.978930112333332,0.357897249499998,False,4.670624191978828,0.0,False,72.13462947097263,,
mp-1016872,CaIrO3,5,Ca1 Ir1 O3,3.953475,3.953475,3.953475,90.0,90.0,90.0,cubic,Pm-3m,0.2740433,-6.932980098,-1.795396682999999,0.30655283400000605,False,7.532249004003523,0.0,False,61.792674200619054,"{'voigt': 172.529, 'reuss': 172.529, 'vrh': 172.529}","{'voigt': 27.424, 'reuss': 26.417, 'vrh': 26.92}"
mp-1079054,CaIrO3,10,Ca1 Ir1 O3,6.542983356302384,6.542983356302384,5.591699,90.0,90.0,147.46751947116496,ortho,Cmcm,2.6640903,-6.91619666,-1.778613244999999,0.32333627200000603,False,7.230919094170888,0.0,False,128.73544915681154,,
mp-20198,CaIrO3,10,Ca1 Ir1 O3,5.585373795724687,5.585373795724687,7.49632,90.0,90.0,151.08250964346007,ortho,Cmcm,0.000811,-6.585585473,-1.4480020580000001,0.6539474590000061,False,8.231860744806733,0.0,False,113.08204138316107,,
mp-4243,CaIrO3,10,Ca1 Ir1 O3,3.182001621497739,5.1508528105754285,7.327230540001787,89.99995359461441,89.99999425277612,107.99529831965526,ortho,Cmcm,2.0033388,-7.239532932000003,-2.101949517000002,0.0,True,8.14993901333421,0.0,False,114.21872186793517,"{'voigt': 157.396, 'reuss': 152.289, 'vrh': 154.842}","{'voigt': 76.029, 'reuss': 65.172, 'vrh': 70.601}"
mp-555735,CaIrO3,20,Ca1 Ir1 O3,5.298261924363456,5.644990970336575,7.646285571930763,89.99907159021744,90.0042743928149,89.99947027257393,ortho,Pnma,1.6249161,-7.215037712999999,-2.077454297999999,0.024495219000007003,False,8.140938278820864,0.0,False,228.6900073487555,,
mp-1183562,CaLaO3,5,Ca1 La1 O3,4.504726,4.504726,4.504726,90.0,90.0,90.0,cubic,Pm-3m,0.999999899999999,-7.024558736,-2.667460735999999,0.5936756482499991,False,4.123203254325017,0.0,False,91.41240612908155,,