mp_id,formula,sites,composition,a_edge (angstrom),b_edge (angstrom),c_edge (angstrom),alpha_ang (deg),beta_ang (deg),gamma_ang (deg),crystal_system,space_group,total_magnetisation (bohr),energy_per_atom (eV/atom),formation_energy (eV/atom),energy_above_hull (eV/atom),stable,density (g/cc),band_gap (eV),direct_bandgap,volume (cubic-angstrom),bulk_modulus (GPa),shear_modulus (GPa)
mp-1224772,HNO3,80,H1 N1 O3,8.40384207,6.1860056428522086,16.23030270990572,90.02950808805981,90.0,90.0,mono,P2_1,0.0,-6.20577780125,-0.8903123615,0.0,True,1.9841905526676211,3.8657,False,843.7518856381166,,
mp-1004524,HPbI3,5,H1 Pb1 I3,6.244213,6.244213,6.244213,90.0,90.0,90.0,cubic,Pm-3m,1.2013159,-2.297984102,0.03798616875,0.6631155871666651,False,4.016735818865265,0.0,False,243.46308866936582,,
mp-27669,HS3N,40,H1 S3 N1,13.192363,8.5105,9.337230034621243,58.81438503054583,90.0,90.0,mono,P2/c,0.0,-4.85490053925,-0.025195961999999003,0.17717110937500102,False,1.647284742090997,3.1338,False,896.8356087271806,,
mp-696216,HS3N,40,H1 S3 N1,7.454668,8.473771,13.350597,90.0,90.0,90.0,ortho,Pnma,0.000272699999999,-4.855782356,-0.026077778749998,0.176289292625001,False,1.7517648310465042,2.8733,True,843.345857981183,,
mp-706654,HS3N,80,H1 S3 N1,8.537202,13.139007,14.622239,90.0,90.0,90.0,ortho,Pbca,0.0,-4.856177876375,-0.026473299124999003,0.17589377225000102,False,1.801438894979115,2.9526,True,1640.181766406574,,
mp-1079110,Hf3AlN,10,Hf3 Al1 N1,5.898134000982478,5.898134000982478,8.83856158,90.0,90.0,147.47868918911558,ortho,Cmcm,0.0,-31.351535749,-1.08851671475,0.0,True,11.58153449115528,0.0,False,165.3030392802877,,
mp-1014252,Hf3ZnN,10,Hf3 Zn1 N1,5.8408218485412196,5.8408218485412196,8.74354286,90.0,90.0,147.12637111250646,ortho,Cmcm,0.0,-31.7165886,-1.017868710750002,0.0,True,12.612695992814613,0.0,False,161.906974833195,"{'voigt': 150.025, 'reuss': 148.48, 'vrh': 149.253}","{'voigt': 93.488, 'reuss': 90.799, 'vrh': 92.143}"
mp-1184625,HfBO3,5,Hf1 B1 O3,3.425085,3.425085,3.425085,90.0,90.0,90.0,cubic,Pm-3m,0.0001547,-8.317634202,-2.021541438833333,1.335505468500004,False,9.806890138288503,0.0,False,40.1803820086125,,
mp-1017578,HfBRh3,5,Hf1 B1 Rh3,4.09526278,4.09526278,4.09526278,90.0,90.0,90.0,cubic,Pm-3m,1e-07,-25.805750548,-0.8244594524999961,0.0,True,12.04060691675199,0.0,False,68.68237791650677,"{'voigt': 223.425, 'reuss': 223.425, 'vrh': 223.425}","{'voigt': 104.297, 'reuss': 99.356, 'vrh': 101.826}"
mp-1184563,HfBeO3,5,Hf1 Be1 O3,3.438335,3.438335,3.438335,90.0,90.0,90.0,cubic,Pm-3m,2.8e-06,-8.59511636,-2.887019377999999,0.766009567499999,False,9.620466885977175,1.0495,False,40.64850377274624,,
mp-1017446,HfCdO3,5,Hf1 Cd1 O3,4.098109,4.098109,4.098109,90.0,90.0,90.0,cubic,Pm-3m,0.003280099999999,-7.822235606,-2.670019158999999,0.280328004500002,False,8.176531700339828,0.0,False,68.82568084657431,"{'voigt': 167.615, 'reuss': 167.615, 'vrh': 167.615}","{'voigt': 76.274, 'reuss': 62.57, 'vrh': 69.422}"
mp-1212404,HfCdO3,20,Hf1 Cd1 O3,5.49403226,5.65745168,7.95897904,90.0,90.0,90.0,ortho,Pnma,0.0,-8.087934108999999,-2.935717661999999,0.014629501500003,False,9.099346704813074,0.0,False,247.38275372750388,,
mp-753534,HfCoO3,20,Hf1 Co1 O3,5.403920000016007,5.432294000001841,7.82869300002229,90.00007878241523,90.00026957063841,90.00004229967026,ortho,Pnma,3e-07,-9.212655324,-2.825757570999999,0.09486151199999601,False,8.2492444494734,2.5156,False,229.8166236890823,,
mp-756322,HfCrO3,20,Hf1 Cr1 O3,4.906804,5.329205,9.361863,90.0,90.0,90.0,ortho,Pnma,0.0,-9.9942832415,-3.103459338499999,0.097289875666673,False,7.555903212417212,1.7873,False,244.80676715117258,,
mp-753790,HfFeO3,20,Hf1 Fe1 O3,5.037946,5.330404,8.7772,90.0,90.0,90.0,ortho,Pnma,15.9995505,-9.562520446499999,-2.9083017955,0.09619258400000401,False,7.956121570460496,2.3645,True,235.705452334387,,
mp-753856,HfFeO3,20,Hf1 Fe1 O3,5.427722,5.511527,7.875288,90.0,90.0,90.0,ortho,Pnma,16.011315,-9.596060444999999,-2.941841794000001,0.06265258550000201,False,7.960036505344464,2.9099,True,235.5895267984845,,
mp-1016841,HfHgO3,5,Hf1 Hg1 O3,4.122739,4.122739,4.122739,90.0,90.0,90.0,cubic,Pm-3m,0.016690299999999002,-7.389007275999999,-2.3668584595,0.29905115800000204,False,10.1204302552704,0.0,False,70.07409939156388,"{'voigt': 159.867, 'reuss': 159.867, 'vrh': 159.867}","{'voigt': 58.596, 'reuss': 46.035, 'vrh': 52.316}"
mp-1016825,HfMgO3,5,Hf1 Mg1 O3,4.072456,4.072456,4.072456,90.0,90.0,90.0,cubic,Pm-3m,0.00199,-8.324014238,-3.037705825999999,0.589504466499999,False,6.165888288342769,1.1738,False,67.541266847953,"{'voigt': 168.944, 'reuss': 168.944, 'vrh': 168.944}","{'voigt': 87.323, 'reuss': 68.189, 'vrh': 77.756}"
mp-754657,HfMnO3,20,Hf1 Mn1 O3,5.411020000089631,5.606515000091411,7.906697000001644,89.99998253421957,89.99993200144282,90.00065527433318,ortho,Pnma,2e-07,-9.964329764999999,-3.171712297586205,0.053202233500005004,False,7.793032028641508,3.3253,False,239.86518852817116,,
mp-1178219,HfNiO3,20,Hf1 Ni1 O3,5.338353,4.977777,9.466947260379662,59.27469894703271,90.0,90.0,mono,P2_1/c,7.9998188,-8.918519201,-2.802277456,0.09684328850000201,False,8.759271576214951,2.7983000000000002,True,216.25322779642678,,
mp-1184669,HfNpO3,5,Hf1 Np1 O3,4.121025,4.121025,4.121025,90.0,90.0,90.0,cubic,Pm-3m,4.9336937,-10.68232455,-3.132554204750001,0.35969367362500204,False,10.996944464979247,0.0,False,69.98673726680191,,
mp-1181854,HfPbO3,40,Hf1 Pb1 O3,5.819735,11.475254,9.210148,90.0,90.0,90.0,ortho,Pbam,0.0014846,-8.424724201,-2.721980377999998,0.277895181312501,False,9.366655865348129,2.3889,True,615.0807367548509,,
mp-22535,HfPbO3,5,Hf1 Pb1 O3,4.155481,4.155481,4.155481,90.0,90.0,90.0,cubic,Pm-3m,0.0,-8.66198264,-2.959238816999998,0.040636742312502,False,10.036049633632498,2.414899999999999,False,71.75693874710115,,
mp-22734,HfPbO3,40,Hf1 Pb1 O3,5.83973713,8.16659022,11.68453719,90.0,90.0,90.0,ortho,Pbam,0.0,-8.69323866225,-2.990494839249998,0.009380720062502,False,10.338823292347769,2.7161,True,557.2442267053383,,
mp-669414,HfPbO3,40,Hf1 Pb1 O3,5.931434,8.303966,11.804147,90.0,90.0,90.0,ortho,Pba2,0.0017691999999990002,-8.689749293750001,-2.98700547075,0.012870088562500001,False,9.909159441648258,2.779499999999999,False,581.4064880592096,,
mp-755790,HfPbO3,20,Hf1 Pb1 O3,5.79707532,5.79311185,8.19633351,90.0,90.0,90.0,ortho,Pnma,0.0,-8.687786885,-2.985043061999999,0.014832497312502002,False,10.465168281170348,2.756199999999999,False,275.25833487806926,,
mp-22147,HfPbS3,20,Hf1 Pb1 S3,3.76009552,9.1346626,14.04024182,90.0,90.0,90.0,ortho,Pnma,0.0,-6.672001060499997,-1.455018099999995,0.0050592355000050005,False,6.637224694019498,1.4517,False,482.24304886321227,,
mp-776083,HfSnO3,10,Hf1 Sn1 O3,7.4564779046024805,7.4564779046024805,7.456477921128783,42.872098245392614,42.872098245392614,42.87209609316188,trig,R-3,0.0011155,-8.757209739,-2.995080958999999,0.068686626500001,False,6.592594463634103,2.3676,False,173.89666541206324,"{'voigt': 41.474, 'reuss': 30534.11, 'vrh': 15287.792}","{'voigt': -34645041273.462, 'reuss': 103994777.086, 'vrh': -17270523248.188}"
mp-8725,HfSnS3,20,Hf1 Sn1 S3,3.70225689,9.38317293,14.17625343,90.0,90.0,90.0,ortho,Pnma,0.0,-20.087042453000002,-1.286523169687501,0.0,True,5.305913745266324,1.1981,False,492.4676860327046,,
mp-1184597,HfThO3,5,Hf1 Th1 O3,4.120356,4.120356,4.120356,90.0,90.0,90.0,cubic,Pm-3m,0.0307366,-9.60118995,-3.158203890999999,0.6684135252499971,False,10.884515143589413,0.0,False,69.95265822570208,,
mp-1016819,HfZnO3,5,Hf1 Zn1 O3,4.076656,4.076656,4.076656,90.0,90.0,90.0,cubic,Pm-3m,0.0123883,-7.653380586,-2.441217454999999,0.6870288145000021,False,7.154294748629557,0.0,False,67.7504521495989,"{'voigt': 162.57, 'reuss': 162.57, 'vrh': 162.57}","{'voigt': 66.299, 'reuss': 44.992, 'vrh': 55.645}"
mp-558934,Hg3ClO,60,Hg3 Cl1 O1,10.937787280762091,10.937787280762091,17.412772463752006,71.24644952066274,71.24644952066274,50.02856980799842,mono,C2/c,0.130848699999999,-2.141595923333333,-0.5964931678333371,0.004985985333331,False,8.72046839214266,1.2708,True,1492.628054734609,,
mp-30284,HgAsO3,10,Hg1 As1 O3,4.86693703,4.866937427669521,7.69342784,90.0,90.0,120.00000402596812,trig,P-31m,0.0,-5.326915276999998,-1.362179759999999,0.0,True,6.807764840336567,1.235099999999999,True,157.81998171998964,,
mp-778408,HgBiO3,10,Hg1 Bi1 O3,6.122759118317575,6.122759118317575,6.122759108816629,57.982850200844666,57.982850200844666,57.9828492080903,trig,R-3c,3.96e-05,-4.901532607,-1.092814734500002,0.037066734499999004,False,9.817158334809003,0.0,False,154.79235641038505,,
mp-27994,HgBrO3,20,Hg1 Br1 O3,9.763821933498734,9.763821933498734,8.599402275655969,72.99835241750064,72.99835241750064,26.627436704094738,mono,C2/c,0.0,-3.753169432499999,-0.395069115,0.0,True,6.226071102207161,3.2015000000000002,False,350.4451666027446,,
mp-30937,HgClO3,40,Hg1 Cl1 O3,6.499923,8.741893,15.497494852772979,62.49410104752216,90.0,90.0,mono,P2_1/c,0.0015317,-3.862650930249999,-0.46223258775000103,0.04271014150000001,False,4.831028274839969,3.066099999999999,False,781.0536097755594,,
mp-1017447,HgGeO3,5,Hg1 Ge1 O3,3.82031,3.82031,3.82031,90.0,90.0,90.0,cubic,Pm-3m,0.000283999999999,-5.128078820000001,-1.172762238500001,0.37525415250000005,False,9.566805527650766,0.0,False,55.756540033335796,"{'voigt': 172.111, 'reuss': 172.111, 'vrh': 172.111}","{'voigt': 71.86, 'reuss': 57.362, 'vrh': 64.611}"
mp-1224643,HgI3N,20,Hg1 I3 N1,8.939513007173545,10.869437,11.985584552722532,90.0,86.36560152181652,90.0,mono,P2_1/c,7.9993218,-2.350400423,0.29359710249999804,0.697944573374997,False,3.402095706830949,1.6452,True,1162.2667668191662,,
mp-1016831,HgIrO3,5,Hg1 Ir1 O3,3.966927,3.966927,3.966927,90.0,90.0,90.0,cubic,Pm-3m,0.1733409,-5.407044466,-0.6086466195000011,0.40191207849999905,False,11.725548861199648,0.0,False,62.425585703929045,"{'voigt': 175.489, 'reuss': 175.489, 'vrh': 175.489}","{'voigt': 45.763, 'reuss': 34.978, 'vrh': 40.37}"
mp-1069250,HgNCl3,5,Hg1 N1 Cl3,4.13024,4.13024,8.011948,90.0,90.0,90.0,tet,P4/mmm,2.3196951,-14.680220059750003,0.7105547174999971,1.120646122499998,False,3.899469175774989,0.0,False,136.67487918840337,,
mp-1197269,HgNO3,60,Hg1 N1 O3,9.830964999999999,9.830964999999999,9.830964999999999,90.0,90.0,90.0,cubic,P4_132,0.2842922,-5.224763704,-0.5263971445000021,0.22121220099999903,False,5.507166170437667,0.0,False,950.1418551282242,,
mp-542289,HgNO3,40,Hg1 N1 O3,8.31497555,6.2866249870463085,11.720643290505693,87.06225776841754,90.0,90.0,mono,P2_1,0.0,-5.445975904999999,-0.7476093455,0.0,True,5.7012030826059785,2.568699999999999,False,611.8695774515091,,
mp-1016840,HgOsO3,5,Hg1 Os1 O3,3.954635,3.954635,3.954635,90.0,90.0,90.0,cubic,Pm-3m,0.0022294,-6.127337816,-0.8511533195000011,0.31606432499999704,False,11.781877746005883,0.0,False,61.847082438291004,"{'voigt': 202.882, 'reuss': 202.882, 'vrh': 202.882}","{'voigt': 51.692, 'reuss': 42.76, 'vrh': 47.226}"
mp-27178,HgPS3,10,Hg1 P1 S3,6.319751317154126,6.324721126466806,7.330869789260353,95.80298377624526,106.06678179951174,118.92744702024791,tri,P-1,0.0,-4.112753571000002,-0.48470871792857306,0.0,True,4.60007093169168,1.7549000000000001,False,236.62949411143137,,
mp-7293,HgPSe3,20,Hg1 P1 Se3,6.650608625947577,6.650608625947577,14.173995736607386,85.85815180430798,85.85815180430798,120.09612286991558,mono,C2/c,0.0,-20.442503977,-0.18159127153273802,0.0,True,5.797420480202423,1.2066,False,536.7001893082713,,
mp-1016877,HgRhO3,5,Hg1 Rh1 O3,3.970706,3.970706,3.970706,90.0,90.0,90.0,cubic,Pm-3m,1.3911544,-5.079618962,-0.5760463775000011,0.40934945250000004,False,9.323166633630525,0.0,False,62.604160522924644,"{'voigt': 148.652, 'reuss': 148.652, 'vrh': 148.652}","{'voigt': 40.831, 'reuss': 38.339, 'vrh': 39.585}"
mp-1016851,HgRuO3,5,Hg1 Ru1 O3,3.944331,3.944331,3.944331,90.0,90.0,90.0,cubic,Pm-3m,0.005139299999999,-5.712738898,-0.8271473795000011,0.30147275250000105,False,9.461778050129125,0.0,False,61.36490393041002,"{'voigt': 178.37, 'reuss': 178.37, 'vrh': 178.37}","{'voigt': 45.547, 'reuss': 32.466, 'vrh': 39.007}"
mp-1200893,HgSN3,40,Hg1 S1 N3,5.6121,10.303859,15.41939,90.0,90.0,90.0,ortho,Pbca,24.0,-4.530755635499999,1.361817332499998,1.5118409335,False,4.092285026607418,0.8006000000000001,False,891.6460729528106,,
mp-10798,HgSeO3,20,Hg1 Se1 O3,9.14933303,4.822833044545072,7.1684436113297645,88.81265267148378,90.0,90.0,mono,P2_1/c,0.0,-4.773510801500004,-1.043617495468755,0.004895135499998001,False,6.87956580026965,2.2784,False,316.2447154866612,,
mp-557224,HgSeO3,20,Hg1 Se1 O3,4.404282462064812,7.229692946528323,10.3010115,90.0,90.0,103.01707447654516,mono,P2_1/c,0.0,-4.777671851000003,-1.047778544968753,0.000734085999999,False,6.80793474316211,2.6045,True,319.5721479797144,,
mp-9228,HgSeO3,20,Hg1 Se1 O3,5.98911586,6.17326333,8.24957921,90.0,90.0,90.0,ortho,Pnma,0.0,-4.778405937000002,-1.048512630968753,0.0,True,7.133045455889164,2.5571,False,305.0066542589892,,
mp-28318,HgTeO3,20,Hg1 Te1 O3,6.197889604657466,7.415128149589364,7.5220586561136145,93.1469938566808,113.76055083410316,92.40509283045273,tri,P-1,0.0,-4.828632827499999,-1.169260638333333,0.014454452625000001,False,7.92879504664172,2.2362,False,315.1425652040373,,
mp-29677,Ho3AlC,5,Ho3 Al1 C1,4.83811738,4.83811738,4.83811738,90.0,90.0,90.0,cubic,Pm-3m,2.499999999999999e-06,-5.754432951999997,-0.400977008499992,0.0,True,7.8268100659047946,0.0,False,113.2476509467386,,
mp-1017577,Ho3AlN,5,Ho3 Al1 N1,4.71952011,4.71952011,4.71952011,90.0,90.0,90.0,cubic,Pm-3m,7.2e-06,-23.999494182,-1.098518032749999,0.0,True,8.46333287929899,0.0,False,105.12197771673038,,
mp-10279,Ho3GaC,5,Ho3 Ga1 C1,5.274446,5.274446,5.274446,90.0,90.0,90.0,cubic,Pm-3m,7.2e-06,-4.01324139,1.196718592000003,1.618684529,False,6.524337740053711,0.0,False,146.73393054302568,"{'voigt': 45.194, 'reuss': 45.194, 'vrh': 45.194}","{'voigt': 29.402, 'reuss': 11.488, 'vrh': 20.445}"
mp-1200030,Ho3GaNi,70,Ho3 Ga1 Ni1,14.694254397682517,14.694254397682517,14.694254397682517,134.07564826418394,134.07564826418394,66.96987646746265,tet,I4/mcm,0.3001475,-4.958407021857143,-0.43815280235713905,0.015015336142857001,False,8.993339565815642,0.0,False,1610.9746823401663,,
mp-10356,Ho3InC,5,Ho3 In1 C1,5.5598849999999995,5.5598849999999995,5.5598849999999995,90.0,90.0,90.0,cubic,Pm-3m,7.15e-05,-3.54337875,1.61279677616667,1.9560694859999992,False,6.005876709079884,0.0,False,171.86895102859154,"{'voigt': 39.666, 'reuss': 39.666, 'vrh': 39.666}","{'voigt': 22.978, 'reuss': 1.601, 'vrh': 12.289}"
mp-31057,Ho3InN,5,Ho3 In1 N1,4.76233324,4.76233324,4.76233324,90.0,90.0,90.0,cubic,Pm-3m,9e-07,-6.045183208,-1.067085231333329,0.0,True,9.587530652669047,0.0,False,108.00885060902125,,
mp-1206983,Ho3PbC,5,Ho3 Pb1 C1,4.86345615,4.86345615,4.86345615,90.0,90.0,90.0,cubic,Pm-3m,6.5e-06,-5.887032368000002,-0.5401621764999971,0.0,True,10.306549782982367,0.0,False,115.03632884060738,,
mp-7114,Ho3SnC,5,Ho3 Sn1 C1,5.57875,5.57875,5.57875,90.0,90.0,90.0,cubic,Pm-3m,0.0027818,-3.925218212,1.4810369365000031,2.00065681533333,False,5.982377406093978,0.0,False,173.6243766542969,"{'voigt': 41.472, 'reuss': 41.472, 'vrh': 41.472}","{'voigt': 22.631, 'reuss': -3.821, 'vrh': 9.405}"
mp-20978,Ho3TlC,5,Ho3 Tl1 C1,5.579005,5.579005,5.579005,90.0,90.0,90.0,cubic,Pm-3m,0.0008416,-3.444996252,1.633638948833335,1.928731187999997,False,6.8008220184654675,0.0,False,173.64818641803348,,
mp-1224113,HoAl3Cu,5,Ho1 Al3 Cu1,4.096633730945271,4.096610025849011,6.04686473525429,70.23384906253627,70.23457675999751,90.04531083593923,tet,I4mm,0.0,-4.410639861999999,-0.42391713699999806,0.0,True,5.765852896892608,0.0,False,89.1118037709106,,
mp-4891,HoAlO3,20,Ho1 Al1 O3,5.14522288,5.3135455,7.35118279,90.0,90.0,90.0,ortho,Pnma,0.0,-8.389978277500001,-3.752550615499999,0.015694614649999,False,7.928877859584824,5.8359000000000005,True,200.9767494622274,,
mp-1205558,HoB3Mo,10,Ho1 B3 Mo1,3.1542658,5.414664463238589,6.81689681462359,78.02809308251855,90.0,90.0,mono,P2_1/m,0.0,-7.721558505999999,-0.625257528499997,0.0,True,8.552437589451909,0.0,False,113.8953932441835,,
mp-1184546,HoBO3,5,Ho1 B1 O3,3.472833999999999,3.472833999999999,3.472833999999999,90.0,90.0,90.0,cubic,Pm-3m,0.0013728,-7.910179908000001,-2.685989057833333,0.871064864999998,False,8.870328944168055,2.6416,False,41.8843783630594,,
mp-752713,HoBO3,30,Ho1 B1 O3,6.505299084068267,6.505299084068267,8.78765674,90.0,90.0,120.06810456270482,ortho,Cmcm,0.0,-8.781244773000001,-3.557053922833332,0.0,True,6.926331102417453,5.4365,False,321.8398383288317,,
mp-753056,HoBO3,10,Ho1 B1 O3,3.9280956870753543,3.9280956870753543,8.618539,90.0,90.0,116.972639007228,ortho,Ama2,0.0,-8.692011009,-3.467820158833331,0.08923376399999901,False,6.269566790805142,4.5465,False,118.51798572341875,,
mp-754409,HoBO3,10,Ho1 B1 O3,6.272718909327438,6.272718909327438,6.272719153594874,46.82821796614265,46.82821796614265,46.8282256571498,trig,R-3c,0.0,-8.75474245,-3.530551599833332,0.026502322999998003,False,6.19441525958512,5.089799999999999,False,119.95586286451699,,
mp-780393,HoBO3,60,Ho1 B1 O3,7.228018,9.021101114179853,9.874026961324038,81.34804877887163,85.64533364644687,77.17694494559169,tri,P-1,0.0039543,-8.722134835333332,-3.497943985166665,0.05910993766666701,False,7.190554227179876,5.046100000000001,False,620.0271110640851,,
mp-850193,HoBO3,20,Ho1 B1 O3,6.132363,6.389442755612573,6.391368676785043,92.76987503498354,108.23586660499973,107.52607018366655,tri,P-1,0.0,-8.748231233999999,-3.524040383833331,0.033013539,False,6.634932318378414,5.367,True,223.983121981949,,
mp-3693,HoBPd3,5,Ho1 B1 Pd3,4.312194,4.312194,4.312194,90.0,90.0,90.0,cubic,Pm-3m,8e-07,-22.485540461818186,-0.6637286733181831,0.112943182090909,False,10.250866594802694,0.0,False,80.1853211410746,"{'voigt': 145.69, 'reuss': 145.69, 'vrh': 145.69}","{'voigt': 28.361, 'reuss': 9.307, 'vrh': 18.834}"
mp-3710,HoBRh3,5,Ho1 B1 Rh3,4.16588183,4.16588183,4.16588183,90.0,90.0,90.0,cubic,Pm-3m,0.665127599999999,-7.476134166,-0.80213519683333,0.0,True,11.12715732371411,0.0,False,72.29709375236472,"{'voigt': 184.167, 'reuss': 184.167, 'vrh': 184.167}","{'voigt': 90.511, 'reuss': 84.45, 'vrh': 87.48}"
mp-1184610,HoBeO3,5,Ho1 Be1 O3,3.562762,3.562762,3.562762,90.0,90.0,90.0,cubic,Pm-3m,0.978172199999999,-7.525089224,-2.8888941549999982,0.36602788837500005,False,8.149399686173764,0.0,False,45.22311094458824,,
mp-1178162,HoBiO3,10,Ho1 Bi1 O3,6.132121358405181,6.132121358405181,6.132121124260104,58.55441475213642,58.55441475213642,58.55441422747324,trig,R3c,0.0004074,-7.469307687,-2.802988328999999,0.031655000875002004,False,8.887519482142379,3.1343,False,157.65844353190255,,
mp-754300,HoBiO3,10,Ho1 Bi1 O3,6.127323233434727,6.127323233434727,6.127324108324123,58.51664742931946,58.51664742931946,58.51664935995539,trig,R-3,4.3400000000000005e-05,-7.4512824800000015,-2.784963121999999,0.049680207875001006,False,8.916443593387505,2.4719,False,157.1470142482774,,
mp-770830,HoBiO3,20,Ho1 Bi1 O3,5.790455,6.208609,8.435383,90.0,90.0,90.0,ortho,Pnma,0.0003181,-7.4651025475,-2.798783189499999,0.035860140375001,False,9.240936565995318,2.9128,True,303.2576792205497,,
mp-1223843,HoBiTe3,5,Ho1 Bi1 Te3,10.869459814602104,10.869459814602104,10.869459710228702,23.341074213844227,23.341074213844227,23.34107577489569,trig,R3m,0.003014299999999,-34.471778266249984,-0.9447201482499851,0.025304999500008002,False,7.099457794442885,1.0659,False,176.99206743063942,,
mp-1188609,HoCoO3,20,Ho1 Co1 O3,3.851741999999999,5.685668,12.251152,90.0,90.0,90.0,ortho,Pnma,8.0000063,-7.5257848255,-2.210788985499999,0.42040786549999404,False,6.730410091104782,0.162,False,268.29687484690714,,
mp-20570,HoCoO3,20,Ho1 Co1 O3,5.11319813,5.42543382,7.33341945,90.0,90.0,90.0,ortho,Pnma,1e-07,-7.9461926909999985,-2.631196850999996,0.0,True,8.876127322290039,0.0,False,203.43872145083407,,
mp-756834,HoCrO3,20,Ho1 Cr1 O3,5.21129171,5.52912416,7.5265797,90.0,90.0,90.0,ortho,Pnma,12.0000005,-9.045650313500001,-3.2267283235,0.0,True,8.113944214971221,2.4964,False,216.86995599622566,,